/*--------------------------------*- C++ -*----------------------------------*\
  =========                 |
  \\      /  F ield         | OpenFOAM: The Open Source CFD Toolbox
   \\    /   O peration     | Website:  https://openfoam.org
    \\  /    A nd           | Version:  9
     \\/     M anipulation  |
\*---------------------------------------------------------------------------*/
FoamFile
{
    format      ascii;
    class       volScalarField;
    location    "100";
    object      p;
}
// * * * * * * * * * * * * * * * * * * * * * * * * * * * * * * * * * * * * * //

dimensions      [0 2 -2 0 0 0 0];

internalField   nonuniform List<scalar> 
12225
(
-4.48734
-5.36671
-5.72041
-5.82252
-5.9484
-6.10514
-6.25394
-6.38804
-6.51297
-6.62886
-6.73152
-6.81573
-6.87655
-6.9089
-6.90673
-6.86693
-6.77458
-6.65849
-4.81724
-5.45214
-5.75244
-5.85005
-5.96724
-6.11613
-6.26037
-6.39155
-6.51434
-6.62884
-6.73096
-6.81561
-6.87798
-6.91325
-6.91564
-6.88252
-6.79918
-6.70372
-4.98481
-5.41164
-5.71441
-5.84961
-5.97731
-6.12792
-6.27384
-6.40553
-6.52714
-6.63969
-6.74002
-6.82394
-6.88769
-6.92777
-6.94012
-6.92332
-6.86913
-6.79179
-5.12199
-5.44006
-5.7421
-5.89368
-6.01423
-6.15366
-6.29302
-6.42048
-6.53859
-6.64871
-6.74818
-6.83327
-6.90091
-6.94858
-6.9738
-6.97627
-6.95298
-6.90842
-5.24911
-5.48922
-5.76047
-5.91323
-6.02929
-6.16278
-6.30024
-6.42765
-6.54567
-6.6559
-6.75632
-6.84385
-6.91615
-6.97173
-7.00961
-7.03089
-7.03652
-7.03637
-5.36453
-5.54405
-5.78021
-5.93621
-6.05494
-6.18496
-6.31948
-6.4452
-6.56161
-6.67059
-6.77099
-6.86047
-6.93748
-7.00147
-7.05285
-7.09413
-7.12938
-7.17034
-5.46928
-5.6044
-5.80775
-5.96279
-6.08204
-6.20614
-6.33533
-6.45835
-6.57331
-6.68178
-6.78319
-6.87589
-6.95894
-7.03266
-7.09859
-7.16035
-7.22387
-7.30032
-5.56501
-5.66808
-5.84108
-5.99014
-6.1087
-6.22805
-6.35293
-6.47418
-6.58864
-6.69734
-6.80032
-6.89663
-6.98603
-7.06958
-7.14975
-7.2309
-7.31987
-7.42686
-5.65296
-5.73281
-5.87898
-6.01919
-6.13633
-6.25182
-6.37237
-6.4912
-6.60465
-6.71334
-6.81776
-6.91769
-7.01345
-7.10668
-7.20043
-7.29937
-7.41053
-7.54251
-5.73406
-5.79705
-5.92047
-6.05022
-6.16465
-6.27646
-6.39265
-6.50882
-6.62136
-6.7304
-6.83671
-6.94057
-7.04277
-7.1453
-7.25149
-7.36592
-7.4953
-7.6464
-5.80895
-5.85961
-5.96418
-6.08285
-6.19335
-6.3016
-6.41375
-6.52724
-6.63883
-6.74825
-6.85634
-6.96379
-7.07177
-7.18242
-7.29908
-7.42598
-7.5691
-7.73323
-5.87234
-5.91477
-6.00523
-6.11384
-6.21985
-6.32482
-6.4335
-6.54445
-6.65498
-6.76459
-6.87409
-6.98443
-7.09691
-7.21375
-7.33802
-7.47344
-7.62515
-7.7963
-5.93084
-5.96698
-6.0458
-6.14494
-6.24602
-6.34763
-6.453
-6.56141
-6.67071
-6.78031
-6.89093
-7.00354
-7.11965
-7.24119
-7.37105
-7.51218
-7.669
-7.84299
-5.99188
-6.02252
-6.09067
-6.1801
-6.27524
-6.37283
-6.47454
-6.58001
-6.68763
-6.79679
-6.908
-7.0223
-7.14101
-7.26593
-7.39932
-7.54348
-7.70164
-7.87415
-6.05334
-6.07934
-6.13814
-6.21812
-6.30657
-6.39943
-6.49702
-6.59906
-6.7043
-6.81221
-6.92303
-7.03769
-7.15722
-7.2831
-7.41684
-7.55996
-7.71469
-7.88011
-6.11192
-6.13414
-6.18505
-6.25628
-6.33775
-6.42522
-6.51818
-6.61608
-6.71801
-6.82329
-6.93213
-7.04491
-7.16259
-7.28576
-7.41564
-7.55256
-7.69826
-7.85057
-6.16257
-6.1818
-6.22632
-6.28997
-6.3646
-6.44628
-6.53392
-6.62679
-6.72398
-6.82482
-6.92914
-7.03713
-7.14906
-7.26528
-7.38609
-7.51151
-7.6422
-7.77602
-6.19744
-6.21448
-6.25426
-6.31193
-6.38051
-6.45635
-6.53812
-6.62494
-6.71579
-6.80992
-6.90685
-7.00648
-7.10858
-7.21315
-7.31993
-7.42864
-7.53943
-7.65021
-6.20438
-6.22009
-6.2571
-6.311
-6.375
-6.44553
-6.5212
-6.60108
-6.68403
-6.76919
-6.8559
-6.94381
-7.03247
-7.12163
-7.21082
-7.29962
-7.38802
-7.47423
-6.1725
-6.18892
-6.22713
-6.28165
-6.34462
-6.41248
-6.48414
-6.55893
-6.63545
-6.71289
-6.79037
-6.8677
-6.94421
-7.01978
-7.09378
-7.16603
-7.23633
-7.30338
-6.12393
-6.14252
-6.18513
-6.24364
-6.30825
-6.37551
-6.44546
-6.51736
-6.59001
-6.66229
-6.73387
-6.80419
-6.87304
-6.93984
-7.00449
-7.06642
-7.12599
-7.18174
-6.06158
-6.08448
-6.13543
-6.20107
-6.26877
-6.33674
-6.40645
-6.47711
-6.54694
-6.61509
-6.68141
-6.74567
-6.8076
-6.86687
-6.92335
-6.97673
-7.02723
-7.07368
-5.98863
-6.01903
-6.08344
-6.15879
-6.22973
-6.29858
-6.36914
-6.44003
-6.50897
-6.57537
-6.63921
-6.70038
-6.75842
-6.81324
-6.86464
-6.91268
-6.95752
-6.99854
-5.90648
-5.9494
-6.03346
-6.12014
-6.19401
-6.26419
-6.33562
-6.40555
-6.47189
-6.53498
-6.59529
-6.6526
-6.70658
-6.75706
-6.8041
-6.8476
-6.8878
-6.92386
-5.81525
-5.87911
-5.98933
-6.08496
-6.15989
-6.23411
-6.31073
-6.38356
-6.45065
-6.51336
-6.57246
-6.62771
-6.6789
-6.72606
-6.76937
-6.80887
-6.84505
-6.87726
-5.71369
-5.81196
-5.95733
-6.05726
-6.12606
-6.19839
-6.27501
-6.34704
-6.41311
-6.47514
-6.53365
-6.58813
-6.63834
-6.68432
-6.72624
-6.7642
-6.7986
-6.82878
-5.60078
-5.74788
-5.93333
-6.04309
-6.11704
-6.19515
-6.27364
-6.34418
-6.40773
-6.46703
-6.52253
-6.57366
-6.62044
-6.66292
-6.70129
-6.7358
-6.76697
-6.79528
-5.47953
-5.70235
-5.89434
-5.98681
-6.0631
-6.15161
-6.23706
-6.31173
-6.37878
-6.44112
-6.49881
-6.5514
-6.59897
-6.64171
-6.67977
-6.71345
-6.74364
-6.7725
-5.33106
-5.74511
-5.95328
-6.0093
-6.07051
-6.1545
-6.23456
-6.30349
-6.36596
-6.42463
-6.47903
-6.52855
-6.5732
-6.61304
-6.64809
-6.67828
-6.70427
-6.72489
-5.01309
-5.64201
-5.91154
-5.97293
-6.04181
-6.13425
-6.21921
-6.29074
-6.35492
-6.41474
-6.46984
-6.51972
-6.56445
-6.60415
-6.63884
-6.6683
-6.693
-6.71075
-3.27183
-3.27447
-3.27952
-3.28419
-3.28761
-3.29058
-3.28884
-3.27725
-3.25726
-3.23834
-3.23199
-3.2509
-3.30527
-3.39268
-3.50979
-3.65756
-3.83753
-4.04986
-4.29275
-4.56344
-4.85815
-5.17301
-5.50374
-5.84646
-6.19689
-6.55076
-6.90239
-7.24495
-7.56815
-7.85927
-8.10121
-8.28327
-8.41256
-8.50402
-8.56406
-8.60113
-8.62763
-8.65974
-8.70902
-8.78071
-8.86809
-8.95768
-9.03553
-9.09283
-9.12567
-9.15152
-9.19592
-9.31216
-9.65691
-10.4349
-11.5975
-12.7207
-13.235
-12.8694
-11.715
-10.1284
-8.68089
-7.69235
-7.09289
-6.75178
-6.56373
-6.4066
-6.19453
-6.10359
-5.98398
-5.46523
-4.71285
-4.63027
-6.262
-9.60644
-14.1594
-19.2996
-24.4847
-29.3264
-33.5895
-37.1602
-40.0066
-42.1488
-43.6365
-44.5252
-44.8326
-44.5153
-43.5787
-42.0746
-40.01
-37.3692
-34.117
-30.2121
-25.6262
-20.3795
-14.5808
-8.45066
-2.3012
3.52801
8.74813
13.1759
16.7502
19.5166
21.5818
23.0417
23.9464
24.3818
24.526
24.4965
24.3622
24.1497
23.8551
23.4892
23.0766
22.6396
22.19
21.732
21.2669
20.7969
20.3243
19.8509
19.3774
18.9044
18.4321
17.9608
17.4915
17.0255
16.5652
16.1134
15.674
15.2514
14.8511
14.4779
14.1333
13.8163
13.5278
13.2702
13.0451
12.8531
12.6936
12.5648
12.4642
12.3887
12.3344
12.2975
12.2743
12.2613
12.2556
12.2548
12.2572
12.2618
12.2683
12.2768
12.2877
12.3017
12.3196
12.342
12.3696
12.4029
12.4421
12.4872
12.5377
12.5946
12.6596
12.732
12.8068
12.8785
12.9422
12.9949
13.0351
13.0625
13.078
13.0824
13.0773
13.0639
13.0432
13.0162
12.9824
12.9421
12.8939
12.8372
12.7724
12.6973
12.6201
12.5354
-3.28636
-3.29296
-3.30851
-3.32774
-3.34203
-3.34391
-3.33371
-3.31709
-3.30056
-3.29278
-3.30435
-3.34209
-3.40788
-3.50389
-3.63194
-3.79307
-3.9871
-4.21277
-4.46735
-4.74727
-5.04833
-5.3665
-5.69793
-6.03952
-6.3883
-6.74179
-7.09702
-7.45085
-7.79947
-8.13924
-8.46672
-8.77252
-9.02913
-9.20813
-9.2995
-9.30983
-9.25792
-9.17503
-9.09596
-9.04824
-9.04047
-9.06227
-9.09689
-9.12904
-9.15227
-9.20241
-9.32471
-9.61758
-10.2789
-11.3665
-12.5722
-13.375
-13.541
-13.1499
-12.2344
-10.8956
-9.45989
-8.32729
-7.64359
-7.23616
-6.94379
-6.74645
-6.27938
-5.89726
-6.10758
-6.35431
-6.02058
-6.71196
-9.43424
-13.7127
-18.8213
-24.1017
-29.0941
-33.5347
-37.3026
-40.3641
-42.7299
-44.4288
-45.4926
-45.9544
-45.8644
-45.3027
-44.2865
-42.7792
-40.7599
-38.1976
-35.0478
-31.255
-26.7686
-21.5794
-15.7699
-9.55204
-3.25466
2.74873
8.13639
12.707
16.3966
19.2513
21.3686
22.8369
23.7313
24.1863
24.3583
24.3481
24.2273
24.0195
23.7319
23.3787
22.9805
22.556
22.116
21.6656
21.2073
20.7436
20.2767
19.8082
19.339
18.8697
18.4003
17.9314
17.4637
16.9988
16.5386
16.0859
15.6441
15.2171
14.8082
14.4206
14.0592
13.73
13.4366
13.1796
12.959
12.774
12.6228
12.5031
12.4116
12.3446
12.2982
12.2684
12.2513
12.2435
12.2421
12.2447
12.2499
12.2568
12.265
12.2749
12.2868
12.3017
12.3202
12.3433
12.3714
12.4052
12.4449
12.4905
12.542
12.6002
12.6662
12.7385
12.8126
12.883
12.9454
12.9971
13.0363
13.063
13.0781
13.0822
13.0769
13.0633
13.0426
13.0154
12.9816
12.9409
12.8924
12.8352
12.7694
12.6929
12.6126
12.5196
-3.3041
-3.30898
-3.31903
-3.32925
-3.33613
-3.33931
-3.33911
-3.34017
-3.34836
-3.36969
-3.41009
-3.47492
-3.5683
-3.69361
-3.85266
-4.04566
-4.27104
-4.52577
-4.8054
-5.10499
-5.41955
-5.74507
-6.07853
-6.41829
-6.76354
-7.11417
-7.46972
-7.82933
-8.19046
-8.54905
-8.89807
-9.22901
-9.53341
-9.80388
-10.0313
-10.2054
-10.3131
-10.343
-10.2922
-10.1714
-10.0045
-9.82324
-9.66167
-9.54693
-9.49672
-9.54633
-9.7288
-10.0923
-10.767
-11.7517
-12.7235
-13.3217
-13.489
-13.2674
-12.6042
-11.5352
-10.4162
-9.58066
-8.97111
-8.42352
-7.55323
-6.90171
-7.00986
-7.64139
-9.07453
-11.1599
-13.2948
-15.9126
-19.2388
-23.0305
-26.9729
-30.8137
-34.3875
-37.5963
-40.3827
-42.7143
-44.5733
-45.9498
-46.8349
-47.2197
-47.1094
-46.5323
-45.512
-44.0509
-42.1374
-39.7423
-36.8134
-33.2728
-29.0263
-24.0015
-18.2193
-11.8651
-5.2969
1.04281
6.76329
11.622
15.5423
18.5675
20.7902
22.3074
23.2393
23.7499
23.976
24.0142
23.9268
23.7426
23.4792
23.1531
22.7813
22.379
21.9572
21.5222
21.078
20.6271
20.1718
19.7136
19.2534
18.7917
18.3288
17.8652
17.4019
16.9402
16.4824
16.0313
15.5905
15.1639
14.7559
14.3707
14.0121
13.6832
13.3861
13.1225
12.8931
12.6984
12.5379
12.4102
12.3131
12.2436
12.1979
12.1721
12.1621
12.1639
12.1739
12.1893
12.2077
12.2277
12.2483
12.2695
12.2916
12.3151
12.3409
12.3697
12.4024
12.4396
12.4816
12.5286
12.5807
12.6385
12.702
12.7697
12.838
12.9026
12.9598
13.0072
13.0432
13.0675
13.081
13.0841
13.0781
13.0639
13.0427
13.0149
12.9803
12.9386
12.8889
12.8303
12.7624
12.6829
12.5973
12.4922
-3.30097
-3.30056
-3.29962
-3.2986
-3.30112
-3.30909
-3.32375
-3.34633
-3.38081
-3.43263
-3.50701
-3.60876
-3.74184
-3.90904
-4.11124
-4.34731
-4.61365
-4.90473
-5.21365
-5.53375
-5.85954
-6.18769
-6.51702
-6.84859
-7.18477
-7.52881
-7.8836
-8.25158
-8.63364
-9.02908
-9.4341
-9.8427
-10.2457
-10.6311
-10.9806
-11.2728
-11.4927
-11.6269
-11.6591
-11.5778
-11.385
-11.1049
-10.7861
-10.4915
-10.2773
-10.1904
-10.2563
-10.4752
-10.8851
-11.4858
-12.1015
-12.5236
-12.7011
-12.6272
-12.3123
-11.8645
-11.4388
-11.0593
-10.3528
-9.4778
-9.01509
-9.15759
-10.345
-12.4401
-15.1858
-18.2774
-21.3086
-24.2809
-27.2888
-30.3316
-33.3543
-36.2794
-39.0263
-41.5223
-43.7077
-45.5384
-46.9842
-48.0261
-48.6517
-48.8533
-48.6336
-48.0061
-46.9873
-45.5915
-43.8225
-41.6638
-39.0638
-35.9218
-32.0858
-27.3884
-21.7425
-15.2695
-8.35397
-1.5405
4.66746
9.95272
14.2064
17.4649
19.8322
21.443
22.4661
23.0726
23.3878
23.5004
23.4694
23.3311
23.1094
22.8225
22.4865
22.1156
21.7208
21.3097
20.8869
20.4554
20.0174
19.5744
19.1275
18.6772
18.2239
17.7682
17.3111
16.854
16.3992
15.9495
15.5086
15.0806
14.6697
14.2805
13.9173
13.5844
13.2847
13.02
12.7911
12.598
12.4399
12.3151
12.2211
12.1548
12.1128
12.0913
12.0865
12.0948
12.1128
12.1375
12.1664
12.1978
12.2303
12.2633
12.2967
12.3306
12.3655
12.4021
12.4409
12.4826
12.5275
12.5759
12.628
12.684
12.7438
12.8061
12.868
12.9263
12.9778
13.0204
13.0528
13.0746
13.0861
13.0879
13.0809
13.066
13.0439
13.015
12.9792
12.936
12.8846
12.8238
12.7532
12.6699
12.5779
12.4616
-3.28922
-3.2855
-3.27902
-3.27559
-3.27776
-3.28934
-3.31239
-3.34934
-3.40412
-3.48115
-3.58486
-3.71963
-3.8889
-4.09452
-4.33573
-4.60924
-4.90893
-5.22664
-5.55348
-5.88204
-6.20761
-6.52893
-6.84771
-7.16792
-7.49432
-7.83168
-8.18403
-8.55517
-8.94788
-9.36279
-9.7972
-10.2484
-10.7131
-11.1849
-11.6543
-12.1036
-12.4997
-12.8053
-12.9892
-13.019
-12.8703
-12.5489
-12.0968
-11.5879
-11.108
-10.7338
-10.5115
-10.4383
-10.5036
-10.6923
-10.9339
-11.1576
-11.3357
-11.4711
-11.621
-11.834
-11.9965
-11.7676
-11.5296
-11.5533
-12.1662
-13.637
-15.9155
-18.7306
-21.7636
-24.8026
-27.7044
-30.4701
-33.1413
-35.7339
-38.2348
-40.6113
-42.8218
-44.8237
-46.5762
-48.0409
-49.1836
-49.9753
-50.3953
-50.434
-50.097
-49.399
-48.3615
-47.0138
-45.3839
-43.4797
-41.2653
-38.6337
-35.3851
-31.2413
-25.9517
-19.4985
-12.2566
-4.89773
1.90798
7.72299
12.3849
15.9278
18.489
20.2537
21.4244
22.1673
22.6001
22.8101
22.8582
22.7857
22.6208
22.3847
22.0944
21.7642
21.4054
21.0261
20.6316
20.2254
19.8099
19.3868
18.9573
18.5219
18.0813
17.636
17.1871
16.7362
16.2856
15.8383
15.3983
14.97
14.5581
14.1675
13.8029
13.4686
13.1676
12.902
12.6727
12.48
12.3234
12.2013
12.1114
12.0503
12.0147
12.0004
12.0038
12.0209
12.0484
12.0832
12.1228
12.1651
12.2089
12.253
12.2973
12.3414
12.3856
12.4303
12.4759
12.5229
12.5715
12.6221
12.6748
12.7298
12.7867
12.8444
12.9008
12.9532
12.9994
13.0373
13.0659
13.0847
13.0939
13.094
13.0855
13.0693
13.0459
13.0155
12.978
12.9328
12.8792
12.8158
12.7421
12.6546
12.5561
12.4304
-3.28468
-3.28135
-3.27557
-3.27384
-3.27825
-3.29326
-3.32276
-3.37041
-3.43994
-3.53546
-3.66096
-3.82024
-4.01599
-4.24912
-4.51768
-4.81708
-5.14017
-5.4781
-5.82145
-6.16262
-6.49712
-6.82434
-7.14658
-7.46824
-7.79412
-8.12943
-8.47946
-8.85067
-9.24673
-9.66601
-10.1063
-10.5689
-11.0539
-11.558
-12.0749
-12.5947
-13.105
-13.5787
-13.9594
-14.1779
-14.1628
-13.8726
-13.3271
-12.6017
-11.8039
-11.0459
-10.4139
-9.94061
-9.61917
-9.42857
-9.34492
-9.36996
-9.49891
-9.77851
-10.2855
-10.9262
-11.5143
-12.1616
-12.9507
-14.3087
-16.2559
-18.732
-21.5334
-24.4635
-27.3614
-30.1383
-32.7572
-35.2242
-37.5562
-39.7638
-41.8482
-43.8027
-45.613
-47.2567
-48.7028
-49.9127
-50.8443
-51.4581
-51.7258
-51.6373
-51.2005
-50.4289
-49.348
-48.0032
-46.4498
-44.7314
-42.8519
-40.7381
-38.1879
-34.8295
-30.1953
-24.0207
-16.5975
-8.7336
-1.31725
5.05254
10.1475
14.0082
16.8131
18.7917
20.1544
21.0618
21.6343
21.9612
22.1066
22.116
22.0217
21.8477
21.6128
21.332
21.0171
20.6767
20.3168
19.9414
19.5534
19.1547
18.7464
18.3294
17.9043
17.4717
17.0328
16.5893
16.1436
15.699
15.2598
14.8306
14.4167
14.0234
13.656
13.3191
13.0165
12.7504
12.5219
12.3314
12.1785
12.0617
11.9784
11.9255
11.8991
11.8951
11.9094
11.9381
11.9775
12.0243
12.0759
12.1302
12.1855
12.2408
12.2956
12.3495
12.4026
12.455
12.507
12.5591
12.6114
12.6643
12.7179
12.7722
12.8268
12.8808
12.9326
12.9801
13.0215
13.0552
13.0803
13.0962
13.103
13.1012
13.0911
13.0733
13.0482
13.016
12.9765
12.9292
12.8732
12.807
12.73
12.6384
12.5344
12.4017
-3.29927
-3.29857
-3.2967
-3.29863
-3.30722
-3.32773
-3.36558
-3.42496
-3.51016
-3.62532
-3.774
-3.9591
-4.18198
-4.44229
-4.73708
-5.06067
-5.40526
-5.76214
-6.12219
-6.47786
-6.82468
-7.16207
-7.49212
-7.81884
-8.14675
-8.48114
-8.82783
-9.19369
-9.58367
-9.99967
-10.4435
-10.9166
-11.4171
-11.9389
-12.4733
-13.015
-13.5659
-14.1222
-14.6413
-15.0228
-15.1507
-14.9337
-14.3414
-13.4373
-12.343
-11.199
-10.1303
-9.21573
-8.48188
-7.9212
-7.53773
-7.35104
-7.37163
-7.73627
-8.48667
-9.57295
-10.9981
-12.7195
-14.8695
-17.4329
-20.2318
-23.154
-26.0793
-28.9155
-31.5983
-34.0979
-36.4111
-38.5543
-40.5512
-42.4256
-44.1953
-45.8684
-47.4405
-48.8932
-50.1928
-51.2923
-52.1358
-52.6697
-52.8567
-52.6859
-52.1642
-51.3046
-50.1366
-48.7142
-47.1128
-45.4163
-43.6916
-41.9442
-40.0341
-37.5527
-33.8068
-28.195
-20.8333
-12.6362
-4.7227
2.13381
7.63464
11.8219
14.9065
17.1307
18.7036
19.7906
20.5168
20.9741
21.2301
21.3336
21.3208
21.2184
21.0472
20.8232
20.5589
20.2636
19.9439
19.6045
19.2485
18.8781
18.4946
18.0989
17.6918
17.2739
16.8465
16.4113
15.971
15.5292
15.0905
14.6602
14.2441
13.8483
13.4784
13.1398
12.8365
12.5711
12.3445
12.1576
12.0099
11.8999
11.8251
11.782
11.7668
11.7752
11.8026
11.845
11.8983
11.959
12.0242
12.0916
12.1595
12.2266
12.2921
12.3558
12.4175
12.4774
12.5356
12.5926
12.6485
12.7036
12.7581
12.8119
12.8647
12.9157
12.9637
13.0071
13.0444
13.0744
13.0961
13.1093
13.1138
13.1099
13.098
13.0784
13.0515
13.0173
12.9756
12.9258
12.8671
12.7981
12.7178
12.6223
12.5139
12.3765
-3.34998
-3.35157
-3.35391
-3.36142
-3.37846
-3.40921
-3.45959
-3.5352
-3.64075
-3.78068
-3.95854
-4.17684
-4.43612
-4.73468
-5.06787
-5.42843
-5.80687
-6.19313
-6.57777
-6.95376
-7.31712
-7.66733
-8.00624
-8.33746
-8.6652
-8.99492
-9.33201
-9.68246
-10.0527
-10.4486
-10.8749
-11.334
-11.8227
-12.3336
-12.8563
-13.3909
-13.95
-14.5421
-15.138
-15.6238
-15.8314
-15.6595
-15.0349
-13.9941
-12.6734
-11.2336
-9.82317
-8.55157
-7.47443
-6.60419
-5.95799
-5.56765
-5.55096
-6.04064
-7.11964
-8.89141
-11.3081
-14.1651
-17.2612
-20.4419
-23.5751
-26.5949
-29.4511
-32.11
-34.5534
-36.7828
-38.8193
-40.6992
-42.4649
-44.1546
-45.7935
-47.3888
-48.9276
-50.3782
-51.6915
-52.8034
-53.6422
-54.1432
-54.2671
-54.0107
-53.3857
-52.4053
-51.0961
-49.5108
-47.7409
-45.9109
-44.1508
-42.5446
-41.035
-39.2522
-36.3747
-31.4831
-24.4383
-16.1708
-7.97539
-0.778952
5.04667
9.53187
12.8851
15.3454
17.126
18.3952
19.2798
19.8741
20.2482
20.454
20.5305
20.5072
20.4064
20.2454
20.0375
19.7926
19.5181
19.2189
18.8988
18.5601
18.2043
17.8326
17.4455
17.0439
16.629
16.2027
15.7679
15.3286
14.8899
14.4577
14.0385
13.6393
13.2664
12.9259
12.6221
12.358
12.1348
11.9531
11.8126
11.7118
11.6478
11.6172
11.6158
11.6388
11.6817
11.7399
11.8091
11.8856
11.9661
12.0482
12.1297
12.2095
12.2865
12.3605
12.4311
12.4985
12.5629
12.6247
12.6841
12.7414
12.7968
12.8502
12.9015
12.95
12.9948
13.0346
13.0683
13.0948
13.1135
13.1239
13.1261
13.1201
13.1063
13.0848
13.0559
13.0196
12.9755
12.9232
12.8617
12.7897
12.7062
12.6072
12.4954
12.3549
-3.46299
-3.46655
-3.4735
-3.48818
-3.51682
-3.56402
-3.63428
-3.73349
-3.86732
-4.04077
-4.25766
-4.52057
-4.82975
-5.18278
-5.57383
-5.99399
-6.43161
-6.87407
-7.30949
-7.72868
-8.12606
-8.50016
-8.85233
-9.18593
-9.50526
-9.81584
-10.1236
-10.4358
-10.7603
-11.1054
-11.4773
-11.8785
-12.3048
-12.748
-13.2022
-13.6778
-14.2044
-14.802
-15.4238
-15.9115
-16.0878
-15.8754
-15.2022
-14.0813
-12.644
-11.0654
-9.50181
-8.07334
-6.84742
-5.85098
-5.10231
-4.646
-4.63914
-5.31013
-6.90588
-9.50685
-12.7286
-16.1831
-19.653
-23.011
-26.1783
-29.1216
-31.8234
-34.2787
-36.4963
-38.5038
-40.3477
-42.086
-43.776
-45.4603
-47.156
-48.8508
-50.5053
-52.0617
-53.4514
-54.6007
-55.4376
-55.9039
-55.9722
-55.6518
-54.9509
-53.8683
-52.4092
-50.6126
-48.5878
-46.5157
-44.5985
-42.9753
-41.617
-40.193
-37.905
-33.6804
-27.1112
-19.0243
-10.7933
-3.44755
2.57923
7.27877
10.8436
13.5073
15.4776
16.9193
17.9581
18.689
19.1834
19.4955
19.6661
19.7267
19.7011
19.6077
19.4605
19.2701
19.0442
18.7887
18.5073
18.2029
17.8772
17.5312
17.1657
16.7815
16.3798
15.9625
15.5328
15.0952
14.6553
14.2199
13.7965
13.3929
13.0166
12.6739
12.3703
12.1085
11.8901
11.7156
11.5847
11.4955
11.4452
11.4299
11.445
11.4854
11.5463
11.6227
11.7099
11.804
11.9015
11.9996
12.0961
12.1895
12.2788
12.3635
12.4435
12.5187
12.5895
12.6562
12.7191
12.7786
12.8349
12.8881
12.9381
12.9843
13.0262
13.0628
13.0932
13.1165
13.1323
13.1401
13.1399
13.1319
13.116
13.0926
13.0617
13.0231
12.9767
12.9218
12.8576
12.7826
12.6961
12.5941
12.4795
12.3373
-3.67701
-3.68385
-3.69811
-3.72315
-3.76595
-3.83334
-3.93085
-4.06357
-4.23729
-4.4577
-4.72931
-5.05538
-5.43644
-5.86967
-6.34834
-6.86183
-7.39573
-7.93358
-8.4588
-8.95744
-9.41949
-9.83978
-10.2172
-10.5543
-10.8556
-11.1282
-11.3798
-11.6197
-11.8579
-12.1038
-12.3637
-12.6382
-12.9215
-13.2074
-13.4985
-13.8181
-14.2118
-14.7147
-15.2758
-15.7146
-15.7849
-15.361
-14.5549
-13.3963
-11.9948
-10.4857
-9.00664
-7.6653
-6.52213
-5.60456
-4.93949
-4.62459
-4.80357
-5.76363
-7.98295
-11.1016
-14.6136
-18.2036
-21.6993
-25.0035
-28.0636
-30.859
-33.3857
-35.6549
-37.6967
-39.5623
-41.3195
-43.041
-44.7875
-46.5913
-48.4447
-50.3004
-52.086
-53.7242
-55.1487
-56.3028
-57.1291
-57.5729
-57.6097
-57.254
-56.5063
-55.3552
-53.7872
-51.8224
-49.58
-47.2859
-45.1936
-43.4701
-42.0907
-40.7443
-38.7201
-34.9598
-28.8653
-21.0999
-13.0246
-5.71603
0.354913
5.15821
8.86288
11.6829
13.812
15.4064
16.5876
17.4486
18.0608
18.4789
18.7452
18.8919
18.944
18.9207
18.8367
18.7031
18.5282
18.3182
18.0775
17.8091
17.515
17.1961
16.8533
16.4871
16.0987
15.69
15.2645
14.8271
14.3843
13.9439
13.5147
13.1054
12.7246
12.3797
12.0765
11.8181
11.6061
11.4409
11.3222
11.2478
11.2145
11.2177
11.2526
11.3137
11.3955
11.4926
11.6003
11.714
11.8302
11.9457
12.0584
12.1664
12.2689
12.365
12.4548
12.5382
12.6156
12.6873
12.7539
12.8157
12.873
12.9261
12.9749
13.0191
13.0584
13.092
13.1193
13.1396
13.1525
13.1578
13.1553
13.1451
13.1272
13.1018
13.0688
13.028
12.9792
12.9218
12.8549
12.7772
12.6879
12.5834
12.4669
12.3239
-4.03705
-4.04992
-4.07687
-4.11908
-4.18243
-4.2748
-4.40448
-4.57893
-4.8048
-5.08863
-5.43604
-5.85137
-6.3364
-6.88859
-7.50046
-8.15907
-8.84569
-9.53715
-10.2087
-10.8379
-11.4063
-11.9021
-12.3201
-12.6611
-12.9308
-13.1384
-13.2955
-13.4158
-13.5123
-13.596
-13.6725
-13.7412
-13.7956
-13.8301
-13.8499
-13.8809
-13.9668
-14.143
-14.3877
-14.582
-14.528
-14.0446
-13.127
-11.9662
-10.6806
-9.37759
-8.16625
-7.10822
-6.23516
-5.56747
-5.13792
-5.061
-5.49639
-6.99561
-9.62044
-12.8717
-16.3642
-19.8624
-23.23
-26.3881
-29.2939
-31.931
-34.3022
-36.4308
-38.3631
-40.167
-41.9229
-43.7067
-45.5712
-47.5278
-49.5388
-51.5266
-53.3991
-55.0785
-56.5115
-57.6515
-58.4357
-58.8036
-58.763
-58.3539
-57.5648
-56.3793
-54.779
-52.7663
-50.4448
-48.0473
-45.8463
-44.0129
-42.5322
-41.1307
-39.1532
-35.5881
-29.8098
-22.3976
-14.6298
-7.53113
-1.55914
3.23967
7.00611
9.92727
12.1766
13.8973
15.2031
16.1827
16.9057
17.4261
17.786
18.0181
18.148
18.1951
18.1748
18.0986
17.9754
17.8118
17.6126
17.3811
17.1193
16.8285
16.5089
16.161
15.7855
15.3844
14.9614
14.5221
14.074
13.6262
13.1888
12.772
12.3856
12.038
11.7355
11.4816
11.2778
11.1246
11.0212
10.9651
10.9524
10.9781
11.0366
11.1219
11.2279
11.3489
11.4796
11.6153
11.7521
11.8868
12.0168
12.1406
12.2569
12.3651
12.4652
12.5571
12.6414
12.7184
12.7887
12.8529
12.9113
12.9644
13.0122
13.0546
13.0915
13.1224
13.1467
13.1641
13.1743
13.177
13.1721
13.1597
13.1398
13.1123
13.0772
13.0343
12.9832
12.9233
12.8539
12.7737
12.6819
12.5754
12.4574
12.3146
-4.57691
-4.59915
-4.64594
-4.71575
-4.81269
-4.94377
-5.11822
-5.34636
-5.63834
-6.0041
-6.45241
-6.99028
-7.62199
-8.34723
-9.15842
-10.0396
-10.9652
-11.9006
-12.806
-13.6433
-14.3779
-14.9872
-15.4594
-15.7943
-16.0008
-16.0947
-16.0958
-16.0253
-15.9035
-15.7465
-15.5635
-15.355
-15.1139
-14.8318
-14.5062
-14.1469
-13.7719
-13.3969
-13.0189
-12.6052
-12.0962
-11.4324
-10.5942
-9.63535
-8.64575
-7.70932
-6.89249
-6.23289
-5.73955
-5.41121
-5.27896
-5.43702
-6.32318
-8.28462
-11.0637
-14.2746
-17.6379
-20.9761
-24.1795
-27.1807
-29.9412
-32.4467
-34.7051
-36.748
-38.6314
-40.4311
-42.2305
-44.1011
-46.082
-48.1632
-50.2836
-52.3455
-54.2476
-55.9094
-57.2755
-58.2982
-58.9292
-59.1594
-59.0789
-58.692
-57.9435
-56.8008
-55.259
-53.3264
-51.0711
-48.6804
-46.4212
-44.4998
-42.9246
-41.4092
-39.3075
-35.7005
-30.0828
-23.0206
-15.6575
-8.89532
-3.13927
1.56003
5.3148
8.28161
10.61
12.427
13.8357
14.9189
15.7421
16.3574
16.8059
17.12
17.325
17.4408
17.4828
17.463
17.3908
17.2733
17.1156
16.9213
16.6926
16.4302
16.1342
15.8043
15.4409
15.0458
14.6229
14.1787
13.7219
13.2632
12.8145
12.3877
11.994
11.6431
11.3417
11.0934
10.8998
10.7614
10.6769
10.6432
10.6555
10.7082
10.7947
10.9083
11.0424
11.1907
11.3474
11.5076
11.6671
11.8226
11.9715
12.1121
12.2431
12.3641
12.4749
12.5757
12.6671
12.7495
12.8237
12.8904
12.95
13.0032
13.0501
13.0909
13.1256
13.1538
13.1754
13.19
13.1974
13.1975
13.1903
13.1757
13.1536
13.124
13.0868
13.0417
12.9884
12.9262
12.8544
12.7719
12.6781
12.57
12.4512
12.3091
-5.2949
-5.3302
-5.40467
-5.51446
-5.66273
-5.85511
-6.10053
-6.41056
-6.79828
-7.27799
-7.86393
-8.56944
-9.40446
-10.3742
-11.4736
-12.6845
-13.9712
-15.2812
-16.5489
-17.7045
-18.6852
-19.4487
-19.9755
-20.268
-20.3461
-20.2407
-19.9877
-19.6231
-19.1791
-18.6818
-18.1471
-17.5776
-16.9618
-16.2817
-15.5241
-14.6888
-13.7822
-12.8074
-11.7609
-10.6443
-9.48461
-8.34956
-7.33638
-6.52516
-5.92267
-5.49968
-5.1938
-4.9909
-4.89943
-4.89863
-5.01463
-5.50217
-6.86277
-9.09448
-11.9187
-15.0509
-18.2834
-21.4779
-24.5437
-27.4214
-30.0743
-32.4919
-34.6886
-36.7002
-38.5833
-40.4114
-42.2624
-44.1985
-46.2446
-48.3749
-50.5182
-52.5795
-54.4598
-56.0763
-57.373
-58.3166
-58.8925
-59.1283
-59.087
-58.7516
-58.0564
-56.9689
-55.4939
-53.635
-51.4404
-49.0824
-46.8289
-44.8875
-43.2367
-41.547
-39.1875
-35.3796
-29.8219
-23.1027
-16.2014
-9.85623
-4.39731
0.129467
3.81078
6.77301
9.14083
11.0234
12.5118
13.6807
14.5908
15.291
15.8205
16.2106
16.4861
16.6668
16.7682
16.8026
16.7799
16.7074
16.5909
16.4339
16.2385
16.0049
15.7325
15.4201
15.0672
14.6755
14.2491
13.7956
13.3254
12.8513
12.3872
11.9472
11.5441
11.1889
10.8888
10.6475
10.4666
10.3463
10.2848
10.278
10.3204
10.4051
10.5245
10.6712
10.8376
11.0169
11.203
11.3905
11.5752
11.7534
11.9227
12.0812
12.2279
12.3622
12.4843
12.5943
12.693
12.781
12.8593
12.9285
12.9894
13.0428
13.0889
13.1282
13.1607
13.1864
13.2053
13.2172
13.2219
13.2195
13.2098
13.1929
13.1686
13.1369
13.0976
13.0504
12.9949
12.9305
12.8566
12.772
12.6765
12.5672
12.4481
12.3071
-6.12887
-6.18169
-6.29149
-6.45266
-6.66878
-6.94538
-7.29172
-7.72049
-8.24746
-8.89139
-9.67296
-10.614
-11.7341
-13.0478
-14.5566
-16.2414
-18.0525
-19.9061
-21.6913
-23.2842
-24.5801
-25.5074
-26.0389
-26.1922
-26.0165
-25.5768
-24.9398
-24.1656
-23.3024
-22.3865
-21.4402
-20.4647
-19.4314
-18.2873
-16.9897
-15.5368
-13.9627
-12.3099
-10.6146
-8.9148
-7.27078
-5.78335
-4.5871
-3.8009
-3.43642
-3.357
-3.4204
-3.53908
-3.7053
-3.89394
-4.20427
-5.08202
-6.78967
-9.18987
-12.04
-15.1204
-18.2671
-21.3651
-24.34
-27.1441
-29.7468
-32.1408
-34.3378
-36.3677
-38.2811
-40.1445
-42.0285
-43.9884
-46.0436
-48.1673
-50.2926
-52.3297
-54.1836
-55.7753
-57.0519
-57.9855
-58.572
-58.8393
-58.8258
-58.5127
-57.8446
-56.7999
-55.3817
-53.5902
-51.4727
-49.2
-47.0282
-45.1237
-43.396
-41.4726
-38.7617
-34.6753
-29.1472
-22.7779
-16.3666
-10.4793
-5.36557
-1.06118
2.49942
5.41519
7.78704
9.70611
11.2507
12.4868
13.469
14.2422
14.8432
15.3017
15.6416
15.8823
16.0393
16.1252
16.1501
16.1217
16.0459
15.9263
15.7645
15.56
15.3108
15.0144
14.6693
14.2767
13.8414
13.3724
12.8823
12.3866
11.9017
11.4442
11.029
10.6682
10.3696
10.1368
9.97124
9.87284
9.83905
9.86469
9.94284
10.0653
10.2234
10.4084
10.6121
10.8268
11.046
11.264
11.4763
11.6793
11.8706
12.0483
12.2116
12.36
12.4938
12.6134
12.7196
12.8134
12.8957
12.9675
13.0298
13.0833
13.1287
13.1665
13.197
13.2203
13.2365
13.2457
13.2477
13.2427
13.2305
13.2113
13.1848
13.151
13.1096
13.0603
13.0027
12.9363
12.8604
12.7741
12.6771
12.567
12.4478
12.3083
-6.94215
-7.01904
-7.17349
-7.39506
-7.68998
-8.06519
-8.53211
-9.10633
-9.8077
-10.6609
-11.6946
-12.9411
-14.4331
-16.1986
-18.25
-20.5681
-23.0813
-25.6526
-28.088
-30.1749
-31.7422
-32.6979
-33.0277
-32.8029
-32.1451
-31.1865
-30.0443
-28.8071
-27.5298
-26.2417
-24.9629
-23.6922
-22.3806
-20.8956
-19.1113
-17.0151
-14.7143
-12.3545
-10.0653
-7.94751
-6.07798
-4.51618
-3.3072
-2.48413
-2.05
-1.91548
-1.92011
-2.00859
-2.13459
-2.31339
-2.80683
-4.01102
-5.97994
-8.5241
-11.4233
-14.4973
-17.6165
-20.6884
-23.65
-26.4583
-29.0824
-31.5054
-33.7345
-35.7993
-37.7483
-39.6429
-41.5474
-43.511
-45.5501
-47.6396
-49.7198
-51.7111
-53.5293
-55.1016
-56.3758
-57.3224
-57.9349
-58.2335
-58.2401
-57.9376
-57.2918
-56.2914
-54.9322
-53.2123
-51.1923
-49.0508
-47.0117
-45.1589
-43.32
-41.1008
-37.988
-33.6257
-28.1594
-22.162
-16.2511
-10.8342
-6.08699
-2.0341
1.37332
4.21066
6.55729
8.48733
10.0665
11.3515
12.3907
13.2246
13.8869
14.4054
14.803
15.0985
15.3071
15.4416
15.5121
15.5268
15.4914
15.4093
15.2812
15.1052
14.8776
14.594
14.2516
13.8515
13.3992
12.906
12.3875
11.8622
11.3501
10.8703
10.4401
10.0728
9.77676
9.55469
9.40802
9.33615
9.33545
9.39951
9.51976
9.68651
9.8895
10.1188
10.3649
10.6197
10.876
11.1278
11.3705
11.6006
11.8155
12.0138
12.1946
12.3578
12.5038
12.6333
12.7472
12.8469
12.9333
13.0078
13.0714
13.1251
13.1698
13.2062
13.2346
13.2556
13.2692
13.2756
13.2749
13.2672
13.2526
13.2309
13.2022
13.1662
13.1227
13.0714
13.0119
12.9435
12.8658
12.778
12.6798
12.569
12.4502
12.3122
-7.55178
-7.68286
-7.89178
-8.17911
-8.55578
-9.03106
-9.61966
-10.3411
-11.2204
-12.289
-13.5847
-15.1524
-17.0401
-19.2934
-21.9403
-24.9652
-28.2675
-31.6289
-34.7133
-37.1255
-38.551
-39.0346
-38.7595
-37.8764
-36.5657
-35.0118
-33.3658
-31.7345
-30.1761
-28.6999
-27.3228
-26.0552
-24.86
-23.4504
-21.4913
-18.893
-15.8787
-12.7749
-9.85694
-7.31085
-5.23655
-3.64956
-2.48011
-1.60673
-0.934765
-0.447297
-0.144272
0.0373561
0.148172
0.0285291
-0.67753
-2.18346
-4.39659
-7.10054
-10.1008
-13.2477
-16.4313
-19.5661
-22.5855
-25.4469
-28.125
-30.6044
-32.8899
-35.0095
-37.0082
-38.942
-40.868
-42.8295
-44.8413
-46.8818
-48.8992
-50.8243
-52.5843
-54.1147
-55.3667
-56.3111
-56.9382
-57.2605
-57.2861
-57.0017
-56.3896
-55.4403
-54.1445
-52.5121
-50.6302
-48.6729
-46.7866
-44.94
-42.8964
-40.2871
-36.7513
-32.1895
-26.882
-21.3138
-15.9239
-10.9854
-6.61561
-2.8315
0.400758
3.13588
5.43399
7.35355
8.94827
10.2661
11.3487
12.2321
12.9466
13.518
13.9676
14.3135
14.5705
14.7512
14.8658
14.9223
14.9263
14.8806
14.7847
14.6349
14.425
14.1484
13.8008
13.3831
12.9027
12.3739
11.8162
11.2522
10.7057
10.1991
9.75171
9.37844
9.08727
8.87986
8.75716
8.71801
8.75769
8.86817
9.03902
9.25854
9.51464
9.79577
10.0914
10.3922
10.6907
10.9806
11.2572
11.517
11.7578
11.9782
12.1778
12.3566
12.5154
12.6551
12.7771
12.8826
12.9732
13.0503
13.1152
13.1691
13.213
13.2479
13.2743
13.2927
13.3037
13.3073
13.3038
13.2934
13.2761
13.252
13.2209
13.1827
13.1371
13.0838
13.0224
12.9522
12.8729
12.7837
12.6844
12.5733
12.4548
12.3181
-7.71153
-7.93014
-8.21251
-8.56548
-9.01113
-9.56168
-10.2344
-11.0519
-12.043
-13.2444
-14.7001
-16.4619
-18.5849
-21.121
-24.1013
-27.4991
-31.1757
-34.8336
-38.0142
-40.1931
-41.0981
-41.1638
-40.5635
-39.4057
-37.8609
-36.1086
-34.3
-32.5313
-30.8603
-29.2983