/*--------------------------------*- C++ -*----------------------------------*\
  =========                 |
  \\      /  F ield         | OpenFOAM: The Open Source CFD Toolbox
   \\    /   O peration     | Website:  https://openfoam.org
    \\  /    A nd           | Version:  9
     \\/     M anipulation  |
\*---------------------------------------------------------------------------*/
FoamFile
{
    format      ascii;
    class       surfaceScalarField;
    location    "100";
    object      phi;
}
// * * * * * * * * * * * * * * * * * * * * * * * * * * * * * * * * * * * * * //

dimensions      [0 3 -1 0 0 0 0];

internalField   nonuniform List<scalar> 
24170
(
3.03469e-06
1.53704e-07
2.86493e-06
1.6973e-07
2.70187e-06
1.63029e-07
2.54431e-06
1.57541e-07
2.39323e-06
1.51057e-07
2.25009e-06
1.43122e-07
2.11547e-06
1.34605e-07
1.98951e-06
1.25942e-07
1.87223e-06
1.17265e-07
1.7635e-06
1.0873e-07
1.66295e-06
1.00539e-07
1.57002e-06
9.29317e-08
1.48384e-06
8.61699e-08
1.40332e-06
8.05275e-08
1.32694e-06
7.63797e-08
1.25314e-06
7.38175e-08
1.17892e-06
7.42346e-08
7.51757e-08
1.10378e-06
3.50055e-06
7.03945e-08
3.5586e-06
1.11634e-07
3.59895e-06
1.22643e-07
3.6221e-06
1.3437e-07
3.63006e-06
1.43067e-07
3.62561e-06
1.47555e-07
3.61108e-06
1.49119e-07
3.58844e-06
1.48565e-07
3.55947e-06
1.46228e-07
3.52571e-06
1.42482e-07
3.48846e-06
1.37779e-07
3.44875e-06
1.32634e-07
3.40731e-06
1.27606e-07
3.36457e-06
1.23276e-07
3.32053e-06
1.20421e-07
3.27497e-06
1.19379e-07
3.22718e-06
1.22042e-07
1.25412e-07
3.17695e-06
3.6783e-06
5.46014e-08
3.69357e-06
9.63373e-08
3.71132e-06
1.04877e-07
3.73224e-06
1.13425e-07
3.7548e-06
1.20487e-07
3.77796e-06
1.24387e-07
3.80083e-06
1.26235e-07
3.8226e-06
1.26788e-07
3.8426e-06
1.26216e-07
3.86038e-06
1.24696e-07
3.87565e-06
1.22509e-07
3.88826e-06
1.20023e-07
3.89818e-06
1.17682e-07
3.90547e-06
1.15982e-07
3.91026e-06
1.1564e-07
3.91261e-06
1.17034e-07
3.91297e-06
1.21688e-07
1.28889e-07
3.9095e-06
3.93526e-06
4.47159e-08
3.94403e-06
8.75375e-08
3.95024e-06
9.86274e-08
3.95671e-06
1.0693e-07
3.96347e-06
1.13702e-07
3.97069e-06
1.17154e-07
3.97863e-06
1.18274e-07
3.98735e-06
1.18057e-07
3.9967e-06
1.16849e-07
4.00649e-06
1.14894e-07
4.01649e-06
1.12509e-07
4.02643e-06
1.1007e-07
4.03612e-06
1.07997e-07
4.04535e-06
1.06743e-07
4.05412e-06
1.06879e-07
4.0622e-06
1.0895e-07
4.07029e-06
1.13603e-07
1.23126e-07
4.07606e-06
4.21513e-06
3.67011e-08
4.22412e-06
7.85325e-08
4.23044e-06
9.22838e-08
4.23651e-06
1.00847e-07
4.24239e-06
1.07809e-07
4.2479e-06
1.11634e-07
4.25318e-06
1.12978e-07
4.25834e-06
1.12891e-07
4.26337e-06
1.11815e-07
4.26823e-06
1.10022e-07
4.2729e-06
1.07834e-07
4.27733e-06
1.0564e-07
4.28147e-06
1.03855e-07
4.28529e-06
1.02921e-07
4.28884e-06
1.03331e-07
4.29212e-06
1.05673e-07
4.2955e-06
1.10226e-07
1.19477e-07
4.29915e-06
4.51538e-06
3.04e-08
4.52394e-06
6.99405e-08
4.53057e-06
8.56223e-08
4.53696e-06
9.44262e-08
4.54341e-06
1.01343e-07
4.54961e-06
1.05417e-07
4.55557e-06
1.07006e-07
4.56133e-06
1.07111e-07
4.56688e-06
1.06261e-07
4.57214e-06
1.04745e-07
4.57709e-06
1.02884e-07
4.58167e-06
1.01052e-07
4.58588e-06
9.96449e-08
4.58972e-06
9.907e-08
4.5933e-06
9.97555e-08
4.59676e-06
1.0221e-07
4.60044e-06
1.06553e-07
1.14813e-07
4.60511e-06
4.83767e-06
2.54396e-08
4.84563e-06
6.19624e-08
4.85242e-06
7.88172e-08
4.85889e-06
8.79403e-08
4.86549e-06
9.47324e-08
4.87197e-06
9.89306e-08
4.87826e-06
1.00704e-07
4.88442e-06
1.00946e-07
4.89042e-06
1.0025e-07
4.89622e-06
9.89364e-08
4.90178e-06
9.73198e-08
4.90708e-06
9.57532e-08
4.91212e-06
9.46021e-08
4.91696e-06
9.42277e-08
4.92174e-06
9.49795e-08
4.92669e-06
9.7264e-08
4.9322e-06
1.01048e-07
1.08061e-07
4.93894e-06
5.18353e-06
2.14783e-08
5.19081e-06
5.4653e-08
5.19764e-06
7.19596e-08
5.20418e-06
8.13743e-08
5.2109e-06
8.79911e-08
5.21762e-06
9.21946e-08
5.22422e-06
9.4095e-08
5.2307e-06
9.44512e-08
5.23706e-06
9.38748e-08
5.24327e-06
9.27177e-08
5.24931e-06
9.12803e-08
5.25517e-06
8.98891e-08
5.2609e-06
8.88676e-08
5.2666e-06
8.85255e-08
5.27245e-06
8.91281e-08
5.27873e-06
9.09777e-08
5.28588e-06
9.38988e-08
9.93859e-08
5.29456e-06
5.55454e-06
1.82686e-08
5.56113e-06
4.80522e-08
5.56791e-06
6.51623e-08
5.57455e-06
7.47232e-08
5.5814e-06
8.11258e-08
5.58835e-06
8.52324e-08
5.59524e-06
8.71952e-08
5.60205e-06
8.76326e-08
5.60878e-06
8.71377e-08
5.61541e-06
8.60794e-08
5.62194e-06
8.4747e-08
5.6284e-06
8.34297e-08
5.63485e-06
8.24089e-08
5.64144e-06
8.19343e-08
5.64838e-06
8.21941e-08
5.65597e-06
8.33877e-08
5.66463e-06
8.52366e-08
8.90444e-08
5.67496e-06
5.95243e-06
1.56102e-08
5.95836e-06
4.20851e-08
5.96502e-06
5.84751e-08
5.97175e-06
6.79752e-08
5.97873e-06
7.41247e-08
5.98589e-06
7.80486e-08
5.99307e-06
7.99941e-08
6.00023e-06
8.04602e-08
6.00736e-06
7.99949e-08
6.01447e-06
7.89695e-08
6.02155e-06
7.76574e-08
6.02866e-06
7.6312e-08
6.0359e-06
7.51657e-08
6.04343e-06
7.44099e-08
6.05146e-06
7.41626e-08
6.06031e-06
7.4537e-08
6.07036e-06
7.51877e-08
7.72607e-08
6.08213e-06
6.37905e-06
1.33631e-08
6.38442e-06
3.67041e-08
6.3909e-06
5.19743e-08
6.39769e-06
6.11729e-08
6.40479e-06
6.70018e-08
6.41217e-06
7.06627e-08
6.41965e-06
7.24986e-08
6.42717e-06
7.29275e-08
6.43472e-06
7.24308e-08
6.44232e-06
7.13671e-08
6.44998e-06
6.99911e-08
6.45778e-06
6.85174e-08
6.46581e-06
6.71258e-08
6.47426e-06
6.59633e-08
6.48334e-06
6.5081e-08
6.49335e-06
6.45329e-08
6.50459e-06
6.39424e-08
6.43471e-08
6.51749e-06
5.7425e-06
1.16903e-08
5.74666e-06
3.25248e-08
5.75197e-06
4.66349e-08
5.75774e-06
5.53908e-08
5.76384e-06
6.08807e-08
5.77023e-06
6.42612e-08
5.77678e-06
6.59365e-08
5.78342e-06
6.62764e-08
5.79014e-06
6.57032e-08
5.79695e-06
6.45516e-08
5.80388e-06
6.30579e-08
5.81099e-06
6.13958e-08
5.81839e-06
5.97319e-08
5.82621e-06
5.81406e-08
5.83463e-06
5.66682e-08
5.84386e-06
5.5303e-08
5.85412e-06
5.36887e-08
5.27651e-08
5.86568e-06
6.99987e-06
9.97255e-09
7.00426e-06
2.81156e-08
7.01016e-06
4.07226e-08
7.01677e-06
4.8767e-08
7.02386e-06
5.3773e-08
7.03135e-06
5.6762e-08
7.0391e-06
5.81766e-08
7.04702e-06
5.83423e-08
7.0551e-06
5.76185e-08
7.06335e-06
5.63023e-08
7.07179e-06
5.45962e-08
7.08053e-06
5.26628e-08
7.08965e-06
5.05978e-08
7.09933e-06
4.84793e-08
7.10971e-06
4.6281e-08
7.12102e-06
4.4005e-08
7.13342e-06
4.12791e-08
3.90052e-08
7.14718e-06
8.5326e-06
8.21724e-09
8.53721e-06
2.3487e-08
8.54368e-06
3.42459e-08
8.55117e-06
4.1263e-08
8.55936e-06
4.55795e-08
8.56807e-06
4.80375e-08
8.57718e-06
4.90554e-08
8.58659e-06
4.8935e-08
8.59625e-06
4.79564e-08
8.60616e-06
4.63755e-08
8.61639e-06
4.43583e-08
8.62701e-06
4.2037e-08
8.63813e-06
3.94755e-08
8.64989e-06
3.67158e-08
8.66246e-06
3.37238e-08
8.67598e-06
3.04785e-08
8.6906e-06
2.66773e-08
2.31022e-08
8.70648e-06
1.0401e-05
6.41327e-09
1.04059e-05
1.86284e-08
1.04129e-05
2.72072e-08
1.04213e-05
3.28376e-08
1.04307e-05
3.62179e-08
1.04407e-05
3.79512e-08
1.04514e-05
3.84223e-08
1.04624e-05
3.78643e-08
1.04739e-05
3.65159e-08
1.04857e-05
3.45495e-08
1.04979e-05
3.21295e-08
1.05106e-05
2.93169e-08
1.05239e-05
2.61933e-08
1.05379e-05
2.27392e-08
1.05526e-05
1.89593e-08
1.05683e-05
1.48029e-08
1.05849e-05
1.00661e-08
5.41483e-09
1.06026e-05
1.26787e-05
4.54364e-09
1.26838e-05
1.34933e-08
1.26914e-05
1.95687e-08
1.27008e-05
2.34564e-08
1.27114e-05
2.55971e-08
1.27229e-05
2.63983e-08
1.27352e-05
2.61328e-08
1.27481e-05
2.49961e-08
1.27614e-05
2.31397e-08
1.27753e-05
2.0711e-08
1.27896e-05
1.77959e-08
1.28044e-05
1.44776e-08
1.28198e-05
1.07684e-08
1.28359e-05
6.69952e-09
1.28526e-05
2.23269e-09
1.287e-05
-2.60982e-09
1.28881e-05
-8.00774e-09
-1.3347e-08
1.29069e-05
1.54551e-05
2.56906e-09
1.54606e-05
7.98537e-09
1.5469e-05
1.12399e-08
1.54794e-05
1.3035e-08
1.54913e-05
1.36427e-08
1.55044e-05
1.3284e-08
1.55184e-05
1.21197e-08
1.55331e-05
1.02712e-08
1.55484e-05
7.83309e-09
1.55642e-05
4.89222e-09
1.55805e-05
1.50896e-09
1.55972e-05
-2.26909e-09
1.56144e-05
-6.41911e-09
1.5632e-05
-1.09228e-08
1.56501e-05
-1.57789e-08
1.56684e-05
-2.09645e-08
1.5687e-05
-2.65638e-08
-3.21028e-08
1.57057e-05
1.88398e-05
4.30502e-10
1.88458e-05
1.91847e-09
1.8855e-05
2.00895e-09
1.88666e-05
1.39992e-09
1.888e-05
2.26233e-10
1.88948e-05
-1.46166e-09
1.89105e-05
-3.62615e-09
1.8927e-05
-6.22706e-09
1.8944e-05
-9.2289e-09
1.89615e-05
-1.25969e-08
1.89793e-05
-1.63019e-08
1.89973e-05
-2.03166e-08
1.90155e-05
-2.46186e-08
1.90338e-05
-2.91856e-08
1.9052e-05
-3.39962e-08
1.907e-05
-3.90163e-08
1.90878e-05
-4.42689e-08
-4.94113e-08
1.91051e-05
2.29657e-05
-1.98778e-09
2.29727e-05
-5.07095e-09
2.29833e-05
-8.56285e-09
2.29965e-05
-1.18255e-08
2.30116e-05
-1.4907e-08
2.3028e-05
-1.79508e-08
2.30454e-05
-2.10657e-08
2.30635e-05
-2.42854e-08
2.30819e-05
-2.76541e-08
2.31004e-05
-3.11798e-08
2.3119e-05
-3.48816e-08
2.31374e-05
-3.87404e-08
2.31556e-05
-4.27522e-08
2.31732e-05
-4.68852e-08
2.31904e-05
-5.1122e-08
2.32067e-05
-5.54195e-08
2.32223e-05
-5.97724e-08
-6.39583e-08
2.32368e-05
1.68126e-05
-3.85846e-09
1.68179e-05
-1.04213e-08
1.68258e-05
-1.64448e-08
1.68353e-05
-2.14129e-08
1.6846e-05
-2.56051e-08
1.68574e-05
-2.93972e-08
1.68693e-05
-3.29433e-08
1.68813e-05
-3.63728e-08
1.68934e-05
-3.97306e-08
1.69053e-05
-4.31214e-08
1.6917e-05
-4.65395e-08
1.69282e-05
-5.00329e-08
1.6939e-05
-5.35586e-08
1.69492e-05
-5.71399e-08
1.69589e-05
-6.07164e-08
1.69677e-05
-6.4291e-08
1.69758e-05
-6.78078e-08
-7.11505e-08
1.69829e-05
1.46364e-05
-5.71951e-09
1.46416e-05
-1.56452e-08
1.4649e-05
-2.38557e-08
1.46576e-05
-3.00506e-08
1.46669e-05
-3.49652e-08
1.46767e-05
-3.91715e-08
1.46866e-05
-4.29098e-08
1.46966e-05
-4.62965e-08
1.47063e-05
-4.94936e-08
1.47157e-05
-5.25826e-08
1.47248e-05
-5.56321e-08
1.47334e-05
-5.86459e-08
1.47415e-05
-6.16455e-08
1.4749e-05
-6.46109e-08
1.47557e-05
-6.75384e-08
1.47619e-05
-7.03929e-08
1.47672e-05
-7.31641e-08
-7.57443e-08
1.47718e-05
1.27421e-05
-7.73666e-09
1.27476e-05
-2.11078e-08
1.27548e-05
-3.11294e-08
1.27628e-05
-3.80644e-08
1.27712e-05
-4.33573e-08
1.27798e-05
-4.77567e-08
1.27883e-05
-5.14484e-08
1.27966e-05
-5.46208e-08
1.28046e-05
-5.74867e-08
1.28121e-05
-6.01819e-08
1.28193e-05
-6.27711e-08
1.28259e-05
-6.52745e-08
1.28319e-05
-6.77209e-08
1.28374e-05
-7.00935e-08
1.28423e-05
-7.23997e-08
1.28465e-05
-7.45991e-08
1.285e-05
-7.66828e-08
-7.85707e-08
1.28528e-05
1.10933e-05
-1.01087e-08
1.10993e-05
-2.71382e-08
1.11066e-05
-3.84439e-08
1.11141e-05
-4.55729e-08
1.11217e-05
-5.09812e-08
1.11293e-05
-5.54057e-08
1.11368e-05
-5.89201e-08
1.11439e-05
-6.17812e-08
1.11507e-05
-6.42702e-08
1.1157e-05
-6.65378e-08
1.11629e-05
-6.86406e-08
1.11682e-05
-7.06309e-08
1.1173e-05
-7.2519e-08
1.11772e-05
-7.43348e-08
1.11809e-05
-7.60473e-08
1.11839e-05
-7.76722e-08
1.11864e-05
-7.91684e-08
-8.0529e-08
1.11884e-05
9.6582e-06
-1.30959e-08
9.66504e-06
-3.39969e-08
9.67242e-06
-4.5834e-08
9.67951e-06
-5.2675e-08
9.68651e-06
-5.79992e-08
9.69332e-06
-6.22323e-08
9.69977e-06
-6.53808e-08
9.70581e-06
-6.78357e-08
9.71144e-06
-6.99198e-08
9.71665e-06
-7.17591e-08
9.72141e-06
-7.34108e-08
9.72569e-06
-7.49223e-08
9.72947e-06
-7.63262e-08
9.73276e-06
-7.76311e-08
9.73554e-06
-7.8842e-08
9.73781e-06
-7.995e-08
9.73956e-06
-8.09271e-08
-8.1764e-08
9.74079e-06
8.40935e-06
-1.70966e-08
8.41715e-06
-4.18058e-08
8.42435e-06
-5.30501e-08
8.43103e-06
-5.93653e-08
8.43765e-06
-6.46326e-08
8.44397e-06
-6.85701e-08
8.44982e-06
-7.12413e-08
8.45519e-06
-7.32219e-08
8.46011e-06
-7.48462e-08
8.46456e-06
-7.62158e-08
8.46852e-06
-7.73882e-08
8.472e-06
-7.84188e-08
8.475e-06
-7.93384e-08
8.47752e-06
-8.01626e-08
8.47957e-06
-8.08989e-08
8.48116e-06
-8.15416e-08
8.4823e-06
-8.20883e-08
-8.25146e-08
8.48305e-06
7.32282e-06
-2.2632e-08
7.33171e-06
-5.07074e-08
7.33847e-06
-5.98278e-08
7.34445e-06
-6.53536e-08
7.35024e-06
-7.04395e-08
7.3556e-06
-7.39405e-08
7.36048e-06
-7.61277e-08
7.36493e-06
-7.76796e-08
7.36895e-06
-7.8879e-08
7.37253e-06
-7.98037e-08
7.37565e-06
-8.05185e-08
7.37832e-06
-8.11018e-08
7.38054e-06
-8.15708e-08
7.38232e-06
-8.19562e-08
7.38369e-06
-8.2274e-08
7.38466e-06
-8.25197e-08
7.38525e-06
-8.26931e-08
-8.27066e-08
7.38542e-06
6.37737e-06
-2.99432e-08
6.38686e-06
-6.01998e-08
6.39334e-06
-6.63235e-08
6.39906e-06
-7.10952e-08
6.40431e-06
-7.56905e-08
6.40896e-06
-7.86019e-08
6.41322e-06
-8.03951e-08
6.41727e-06
-8.17321e-08
6.42117e-06
-8.27883e-08
6.42496e-06
-8.35978e-08
6.42865e-06
-8.42372e-08
6.43229e-06
-8.47422e-08
6.43587e-06
-8.51573e-08
6.4394e-06
-8.54957e-08
6.4429e-06
-8.57765e-08
6.44639e-06
-8.60228e-08
6.44988e-06
-8.61953e-08
-8.62782e-08
6.45342e-06
5.55663e-06
-4.11148e-08
5.56769e-06
-7.12682e-08
5.57839e-06
-7.70377e-08
5.59067e-06
-8.3399e-08
5.60405e-06
-8.90747e-08
5.61816e-06
-9.27166e-08
5.63287e-06
-9.51108e-08
5.648e-06
-9.68639e-08
5.66333e-06
-9.81203e-08
5.67865e-06
-9.8942e-08
5.69381e-06
-9.94095e-08
5.70866e-06
-9.95963e-08
5.72306e-06
-9.95582e-08
5.7369e-06
-9.93421e-08
5.7501e-06
-9.89815e-08
5.76263e-06
-9.85612e-08
5.77448e-06
-9.80734e-08
-9.79987e-08
5.78619e-06
4.89583e-06
-1.09341e-07
4.95049e-06
-1.25935e-07
4.99665e-06
-1.2322e-07
5.03413e-06
-1.20903e-07
5.06314e-06
-1.18092e-07
5.08465e-06
-1.1423e-07
5.09956e-06
-1.10022e-07
5.10858e-06
-1.05897e-07
5.11238e-06
-1.01931e-07
5.11155e-06
-9.81286e-08
5.10662e-06
-9.44924e-08
5.09804e-06
-9.10281e-08
5.08623e-06
-8.7748e-08
5.07153e-06
-8.46493e-08
5.05427e-06
-8.17248e-08
5.03471e-06
-7.90176e-08
5.01313e-06
-7.65129e-08
-7.4506e-08
4.98961e-06
4.09333e-06
3.9674e-06
3.84418e-06
3.72327e-06
3.60518e-06
3.49095e-06
3.38092e-06
3.27503e-06
3.17309e-06
3.07496e-06
2.98047e-06
2.88944e-06
2.80169e-06
2.71704e-06
2.63531e-06
2.55629e-06
2.47977e-06
2.40526e-06
-5.49288e-08
5.39383e-08
-1.27405e-07
7.14634e-08
-2.00797e-07
7.26197e-08
-2.55724e-07
5.42191e-08
-2.74175e-07
1.77344e-08
-2.46277e-07
-2.86678e-08
-1.78054e-07
-6.90306e-08
-7.96424e-08
-9.9442e-08
3.75217e-08
-1.18341e-07
1.63928e-07
-1.27478e-07
3.01636e-07
-1.38359e-07
4.52123e-07
-1.50975e-07
6.16775e-07
-1.64987e-07
7.95491e-07
-1.79002e-07
9.86799e-07
-1.91529e-07
1.18878e-06
-2.02185e-07
1.39966e-06
-2.11041e-07
1.61767e-06
-2.18182e-07
1.84117e-06
-2.23653e-07
2.06848e-06
-2.27471e-07
2.29796e-06
-2.29635e-07
2.52787e-06
-2.30106e-07
2.75648e-06
-2.28787e-07
2.98176e-06
-2.25511e-07
3.20158e-06
-2.20027e-07
3.4133e-06
-2.1199e-07
3.61398e-06
-2.00907e-07
3.79986e-06
-1.86187e-07
3.96646e-06
-1.66833e-07
4.10781e-06
-1.41682e-07
4.21703e-06
-1.09435e-07
4.28194e-06
-6.52474e-08
4.28663e-06
-4.89461e-09
4.21798e-06
6.83234e-08
4.06858e-06
1.49241e-07
3.83467e-06
2.33576e-07
3.51873e-06
3.15811e-07
3.12992e-06
3.8844e-07
2.68734e-06
4.42455e-07
2.21786e-06
4.69047e-07
1.75484e-06
4.62873e-07
1.33022e-06
4.24088e-07
9.68466e-07
3.6152e-07
6.77585e-07
2.90174e-07
4.65801e-07
2.11417e-07
3.35562e-07
1.29313e-07
2.08482e-07
1.26523e-07
-7.07883e-08
2.78808e-07
-5.27476e-07
4.56443e-07
-1.07377e-06
5.46122e-07
-1.62346e-06
5.49416e-07
-2.07696e-06
4.53308e-07
-2.28862e-06
2.11241e-07
-2.19944e-06
-8.95864e-08
-1.96656e-06
-2.33237e-07
-1.56658e-06
-4.00539e-07
-9.82616e-07
-5.84447e-07
-3.07481e-07
-6.76351e-07
3.26954e-07
-6.35036e-07
7.84908e-07
-4.58859e-07
1.08247e-06
-2.9793e-07
1.29205e-06
-2.10109e-07
1.64564e-06
-3.53677e-07
1.88346e-06
-2.38156e-07
1.71314e-06
1.70536e-07
1.05146e-06
6.61487e-07
-1.92667e-07
1.24442e-06
-1.81629e-06
1.62354e-06
-3.52117e-06
1.70504e-06
-5.15909e-06
1.63791e-06
-6.64797e-06
1.48898e-06
-7.94837e-06
1.3004e-06
-9.04894e-06
1.10063e-06
-9.95629e-06
9.07356e-07
-1.06863e-05
7.30005e-07
-1.12584e-05
5.72102e-07
-1.16918e-05
4.33475e-07
-1.20037e-05
3.11864e-07
-1.22079e-05
2.04186e-07
-1.23158e-05
1.07912e-07
-1.23391e-05
2.33316e-08
-1.22926e-05
-4.65631e-08
-1.21865e-05
-1.06111e-07
-1.20222e-05
-1.64279e-07
-1.17964e-05
-2.25741e-07
-1.15026e-05
-2.93878e-07
-1.11319e-05
-3.70675e-07
-1.06749e-05
-4.56905e-07
-1.01236e-05
-5.512e-07
-9.47419e-06
-6.49206e-07
-8.73078e-06
-7.4322e-07
-7.90749e-06
-8.23094e-07
-7.02831e-06
-8.78994e-07
-6.12338e-06
-9.04719e-07
-5.22345e-06
-8.9972e-07
-4.35472e-06
-8.68504e-07
-3.53623e-06
-8.18246e-07
-2.77981e-06
-7.5615e-07
-2.09128e-06
-6.88225e-07
-1.47226e-06
-6.18667e-07
-9.18878e-07
-5.52921e-07
-4.19667e-07
-4.98541e-07
4.82093e-08
-4.6717e-07
5.0104e-07
-4.52353e-07
9.25578e-07
-4.24223e-07
1.31008e-06
-3.84252e-07
1.6581e-06
-3.47824e-07
1.97538e-06
-3.17106e-07
2.26664e-06
-2.91133e-07
2.53551e-06
-2.68755e-07
2.78484e-06
-2.49254e-07
3.01711e-06
-2.32197e-07
3.23444e-06
-2.17311e-07
3.43876e-06
-2.0429e-07
3.63159e-06
-1.9285e-07
3.81425e-06
-1.82671e-07
3.98767e-06
-1.73465e-07
4.15254e-06
-1.6492e-07
4.30922e-06
-1.56745e-07
4.45778e-06
-1.48613e-07
4.59795e-06
-1.4023e-07
4.72927e-06
-1.31352e-07
4.85088e-06
-1.21657e-07
4.96152e-06
-1.10683e-07
5.05992e-06
-9.84675e-08
5.14577e-06
-8.59127e-08
5.21747e-06
-7.178e-08
5.26724e-06
-4.98505e-08
5.28401e-06
-1.6847e-08
5.26253e-06
2.13917e-08
5.2032e-06
5.92486e-08
5.1076e-06
9.55225e-08
4.9779e-06
1.29642e-07
4.81669e-06
1.61137e-07
4.62707e-06
1.8958e-07
4.41248e-06
2.14542e-07
4.17682e-06
2.35638e-07
3.92426e-06
2.52539e-07
3.65925e-06
2.65015e-07
3.38629e-06
2.72952e-07
3.10991e-06
2.76369e-07
2.83447e-06
2.7542e-07
2.56404e-06
2.7039e-07
2.30231e-06
2.61674e-07
2.05249e-06
2.49758e-07
1.81721e-06
2.35187e-07
1.59859e-06
2.18524e-07
1.39816e-06
2.00322e-07
1.21695e-06
1.81086e-07
1.05558e-06
1.61245e-07
9.14312e-07
1.41126e-07
7.93204e-07
1.20956e-07
6.922e-07
1.00847e-07
6.11186e-07
8.08424e-08
5.50128e-07
6.08844e-08
5.08905e-07
4.10347e-08
4.88523e-07
2.01962e-08
4.91321e-07
-2.99121e-09
5.16434e-07
-2.52901e-08
5.58625e-07
-4.2366e-08
6.12014e-07
-5.35411e-08
6.71501e-07
-5.96303e-08
7.332e-07
-6.18165e-08
7.94317e-07
-6.1223e-08
8.53028e-07
-5.87915e-08
9.08216e-07
-5.52541e-08
9.5942e-07
-5.12494e-08
1.00664e-06
-4.72563e-08
1.05037e-06
-4.37408e-08
1.09135e-06
-4.09803e-08
1.13038e-06
-3.90281e-08
1.16824e-06
-3.78359e-08
1.20498e-06
-3.67156e-08
1.24002e-06
-3.50022e-08
1.27148e-06
-3.1415e-08
1.29614e-06
-2.46104e-08
1.30926e-06
-1.30694e-08
1.30464e-06
4.68675e-09
1.27077e-06
3.39321e-08
6.76458e-08
1.20317e-06
-3.28315e-08
8.58098e-08
-7.62288e-08
1.13823e-07
-1.04304e-07
9.97213e-08
-1.02399e-07
5.11179e-08
-6.05459e-08
-2.55482e-08
4.85347e-09
-9.54988e-08
7.69219e-08
-1.42281e-07
1.53639e-07
-1.77032e-07
2.44628e-07
-2.09939e-07
3.58306e-07
-2.41646e-07
4.91747e-07
-2.72163e-07
6.41654e-07
-3.01192e-07
8.04836e-07
-3.2841e-07
9.79201e-07
-3.53581e-07
1.16374e-06
-3.76241e-07
1.35738e-06
-3.95994e-07
1.55887e-06
-4.12678e-07
1.76685e-06
-4.26303e-07
1.98001e-06
-4.36941e-07
2.19708e-06
-4.44681e-07
2.4169e-06
-4.49605e-07
2.63836e-06
-4.51724e-07
2.86036e-06
-4.50946e-07
3.0817e-06
-4.47056e-07
3.30118e-06
-4.39691e-07
3.51728e-06
-4.28319e-07
3.72836e-06
-4.12201e-07
3.93224e-06
-3.90339e-07
4.12668e-06
-3.61498e-07
4.30887e-06
-3.24151e-07
4.47576e-06
-2.76546e-07
4.62784e-06
-2.17602e-07
4.76793e-06
-1.45198e-07
4.89093e-06
-5.49131e-08
4.98299e-06
5.7004e-08
5.02596e-06
1.904e-07
5.00029e-06
3.41342e-07
4.88677e-06
5.0178e-07
4.67059e-06
6.58504e-07
4.34598e-06
7.93499e-07
3.92152e-06
8.87213e-07
3.42075e-06
9.24717e-07
2.88007e-06
9.02078e-07
2.34053e-06
8.29553e-07
1.82735e-06
7.24461e-07
1.35105e-06
6.05349e-07
9.1403e-07
5.63368e-07
4.68558e-07
7.2389e-07
1.83668e-08
9.0641e-07
-3.34063e-07
8.98163e-07
-4.9484e-07
7.09895e-07
-4.15279e-07
3.72918e-07
-2.54336e-07
4.95168e-08
-2.12449e-07
-1.32396e-07
-1.65283e-08
-4.29631e-07
5.37051e-07
-9.54496e-07
1.25984e-06
-1.30748e-06
1.88666e-06
-1.30345e-06
2.26981e-06
-1.01843e-06
2.44003e-06
-6.29393e-07
2.59221e-06
-4.50364e-07
2.45005e-06
-6.82567e-08
1.5543e-06
5.41931e-07
-2.49589e-07
1.56562e-06
-2.54675e-06
2.4677e-06
-4.76732e-06
2.88205e-06
-6.64954e-06
3.12666e-06
-8.16497e-06
3.13896e-06
-9.37473e-06
2.91482e-06
-1.03043e-05
2.5675e-06
-1.09861e-05
2.17083e-06
-1.14629e-05
1.77715e-06
-1.17802e-05
1.41792e-06
-1.19802e-05
1.10745e-06
-1.20982e-05
8.48017e-07
-1.2161e-05
6.34874e-07
-1.21877e-05
4.60165e-07
-1.21913e-05
3.15439e-07
-1.218e-05
1.92952e-07
-1.21581e-05
8.59911e-08
-1.21228e-05
-1.19591e-08
-1.20607e-05
-1.08638e-07
-1.19581e-05
-2.08685e-07
-1.18078e-05
-3.14596e-07
-1.16029e-05
-4.30715e-07
-1.13349e-05
-5.61866e-07
-1.09932e-05
-7.12339e-07
-1.05656e-05
-8.84396e-07
-1.00405e-05
-1.07623e-06
-9.40989e-06
-1.27964e-06
-8.67438e-06
-1.47855e-06
-7.84672e-06
-1.65059e-06
-6.95251e-06
-1.77304e-06
-6.026e-06
-1.83107e-06
-5.10256e-06
-1.82299e-06
-4.21185e-06
-1.75904e-06
-3.37436e-06
-1.65554e-06
-2.60132e-06
-1.52899e-06
-1.89607e-06
-1.39325e-06
-1.25433e-06
-1.26014e-06
-6.67074e-07
-1.13984e-06
-1.21045e-07
-1.04418e-06
3.81964e-07
-9.69833e-07
8.33908e-07
-9.04054e-07
1.24212e-06
-8.32231e-07
1.61872e-06
-7.60677e-07
1.96646e-06
-6.95411e-07
2.28765e-06
-6.38163e-07
2.58512e-06
-5.88482e-07
2.86175e-06
-5.45294e-07
3.12018e-06
-5.07608e-07
3.3627e-06
-4.74674e-07
3.59133e-06
-4.45903e-07
3.80777e-06
-4.20723e-07
4.01348e-06
-3.98567e-07
4.20963e-06
-3.78845e-07
4.39711e-06
-3.60979e-07
4.57651e-06
-3.44374e-07
4.74815e-06
-3.28439e-07
4.91206e-06
-3.12574e-07
5.06798e-06
-2.96196e-07
5.21532e-06
-2.78735e-07
5.35332e-06
-2.59692e-07
5.48126e-06
-2.38672e-07
5.59804e-06
-2.15308e-07
5.70117e-06
-1.89106e-07
5.78902e-06
-1.59706e-07
5.86663e-06
-1.27532e-07
5.94262e-06
-9.29167e-08
6.01886e-06
-5.49281e-08
6.09088e-06
-1.28483e-08
6.15333e-06
3.3001e-08
6.20102e-06
8.18946e-08
6.22917e-06
1.32923e-07
6.23377e-06
1.84939e-07
6.21169e-06
2.3658e-07
6.16093e-06
2.86379e-07
6.08062e-06
3.32832e-07
5.9711e-06
3.74522e-07
5.83386e-06
4.10185e-07
5.67141e-06
4.38803e-07
5.48716e-06
4.59642e-07
5.28523e-06
4.72297e-07
5.07017e-06
4.76687e-07
4.84683e-06
4.73055e-07
4.62005e-06
4.61908e-07
4.39454e-06
4.43979e-07
4.17465e-06
4.20146e-07
3.96429e-06
3.9138e-07
3.76681e-06
3.58657e-07
3.58493e-06
3.22939e-07
3.42069e-06
2.85115e-07
3.27545e-06
2.46015e-07
3.14983e-06
2.06389e-07
3.0437e-06
1.6694e-07
2.95639e-06
1.2826e-07
2.88566e-06
9.08508e-08
2.82684e-06
5.57496e-08
2.7763e-06
2.51791e-08
2.73269e-06
1.15572e-09
2.69494e-06
-1.58576e-08
2.66183e-06
-2.66025e-08
2.63227e-06
-3.23161e-08
2.60528e-06
-3.43012e-08
2.58017e-06
-3.37245e-08
2.55646e-06
-3.15946e-08
2.534e-06
-2.88188e-08
2.51282e-06
-2.60938e-08
2.49307e-06
-2.40097e-08
2.47487e-06
-2.27845e-08
2.45817e-06
-2.23186e-08
2.44251e-06
-2.21686e-08
2.427e-06
-2.11849e-08
2.41022e-06
-1.8186e-08
2.39031e-06
-1.1474e-08
2.36505e-06
7.01959e-10
2.33174e-06
2.02874e-08
2.2859e-06
5.05842e-08
2.21595e-06
1.03934e-07
1.72092e-07
2.11156e-06
1.38487e-08
7.09496e-08
1.07601e-08
1.15639e-07
2.0389e-08
8.85204e-08
5.85016e-08
1.11577e-08
1.04914e-07
-7.33361e-08
1.45535e-07
-1.36977e-07
1.93763e-07
-1.91123e-07
2.57775e-07
-2.41564e-07
3.38309e-07
-2.90876e-07
4.34843e-07
-3.38534e-07
5.46125e-07
-3.83726e-07
6.70812e-07
-4.26134e-07
8.07605e-07
-4.65409e-07
9.54881e-07
-5.01046e-07
1.1111e-06
-5.32616e-07
1.27466e-06
-5.59712e-07
1.44401e-06
-5.82154e-07
1.61763e-06
-6.00054e-07
1.79432e-06
-6.1376e-07
1.97329e-06
-6.23786e-07
2.15422e-06
-6.30663e-07
2.33714e-06
-6.34801e-07
2.52249e-06
-6.36441e-07
2.71088e-06
-6.35636e-07
2.90319e-06
-6.32173e-07
3.10013e-06
-6.25484e-07
3.30227e-06
-6.14543e-07
3.5095e-06
-5.97816e-07
3.72107e-06
-5.73283e-07
3.93506e-06
-5.38401e-07
4.14855e-06
-4.90254e-07
4.35673e-06
-4.26039e-07
4.55484e-06
-3.43514e-07
4.73908e-06
-2.39391e-07
4.90372e-06
-1.07812e-07
5.04031e-06
5.36069e-08
5.13974e-06
2.41768e-07
5.19024e-06
4.51117e-07
5.17537e-06
6.73266e-07
5.07413e-06
8.94612e-07
4.86624e-06
1.09501e-06
4.54141e-06
1.24945e-06
4.10829e-06
1.33513e-06
3.59408e-06
1.34367e-06
3.03565e-06
1.28282e-06
2.4771e-06
1.16378e-06
1.99853e-06
1.04184e-06
1.68273e-06
1.03954e-06
1.47989e-06
1.10914e-06
1.33317e-06
1.04471e-06
1.26742e-06
7.75441e-07
1.26743e-06
3.72629e-07
1.30616e-06
1.05469e-08
1.47615e-06
-3.02594e-07
1.92665e-06
-8.80267e-07
2.4921e-06
-1.52009e-06
2.95719e-06
-1.77271e-06
3.13976e-06
-1.48619e-06
3.09123e-06
-9.70106e-07
2.67358e-06
-2.12047e-07
1.48945e-06
7.33504e-07
-6.54362e-07
2.0754e-06
-3.28651e-06
3.17402e-06
-5.54771e-06
3.82679e-06
-7.24515e-06
4.16512e-06
-8.52741e-06
4.16429e-06
-9.3705e-06
3.96973e-06
-9.86004e-06
3.62849e-06
-1.01339e-05
3.18866e-06
-1.02851e-05
2.71867e-06
-1.03817e-05
2.26743e-06
-1.04669e-05
1.86235e-06
-1.05615e-05
1.51257e-06
-1.06698e-05
1.21574e-06
-1.07861e-05
9.64346e-07
-1.09009e-05
7.49659e-07
-1.10043e-05
5.63636e-07
-1.10883e-05
3.99455e-07
-1.11468e-05
2.51461e-07
-1.11755e-05
1.14698e-07
-1.11717e-05
-1.58328e-08
-1.11352e-05
-1.4511e-07
-1.10663e-05
-2.77569e-07
-1.09619e-05
-4.18917e-07
-1.08165e-05
-5.76192e-07
-1.0621e-05
-7.57361e-07
-1.03628e-05
-9.70488e-07
-1.00256e-05
-1.22157e-06
-9.59068e-06
-1.51103e-06
-9.04134e-06
-1.82884e-06
-8.3692e-06
-2.15055e-06
-7.58161e-06
-2.43806e-06
-6.70486e-06
-2.64967e-06
-5.77948e-06
-2.75633e-06
-4.84912e-06
-2.75322e-06
-3.95009e-06
-2.65795e-06
-3.10619e-06
-2.49931e-06
-2.32869e-06
-2.30636e-06
-1.61888e-06
-2.10292e-06
-9.71613e-07
-1.90725e-06
-3.77589e-07
-1.73368e-06
1.64454e-07
-1.58604e-06
6.51591e-07
-1.45682e-06
1.08708e-06
-1.3394e-06
1.4831e-06
-1.22813e-06
1.84739e-06
-1.12484e-06
2.1838e-06
-1.0317e-06
2.49514e-06
-9.49399e-07
2.78415e-06
-8.77393e-07
3.05353e-06
-8.14589e-07
3.30577e-06
-7.59783e-07
3.54308e-06
-7.11946e-07
3.76739e-06
-6.70178e-07
3.98033e-06
-6.33657e-07
4.1833e-06
-6.01539e-07
4.37741e-06
-5.72984e-07
4.56351e-06
-5.47121e-07
4.74217e-06
-5.2308e-07
4.91364e-06
-4.99965e-07
5.0779e-06
-4.76888e-07
5.23463e-06
-4.52969e-07
5.38323e-06
-4.27374e-07
5.52286e-06
-3.99368e-07
5.65253e-06
-3.68383e-07
5.77109e-06
-3.33928e-07
5.8774e-06
-2.95483e-07
5.97042e-06
-2.52804e-07
6.04914e-06
-2.0633e-07
6.11282e-06
-1.56673e-07
6.16203e-06
-1.04218e-07
6.19855e-06
-4.94458e-08
6.22424e-06
7.2458e-09
6.24079e-06
6.52858e-08
6.24966e-06
1.24005e-07
6.25181e-06
1.82739e-07
6.24754e-06
2.40827e-07
6.23634e-06
2.97551e-07
6.21709e-06
3.52081e-07
6.18815e-06
4.03448e-07
6.14778e-06
4.5055e-07
6.09437e-06
4.92206e-07
6.02674e-06
5.27244e-07
5.9444e-06
5.54605e-07
5.8476e-06
5.73447e-07
5.73737e-06
5.83236e-07
5.61545e-06
5.83781e-07
5.4841e-06
5.75266e-07
5.34599e-06
5.58204e-07
5.20391e-06
5.33404e-07
5.06062e-06
5.01887e-07
4.91867e-06
4.64834e-07
4.78022e-06
4.23504e-07
4.64698e-06
3.79202e-07
4.5201e-06
3.33213e-07
4.4002e-06
2.86789e-07
4.28732e-06
2.41094e-07
4.18086e-06
1.9726e-07
4.07989e-06
1.56678e-07
3.98384e-06
1.21177e-07
3.8927e-06
9.22585e-08
3.80647e-06
7.0333e-08
3.72502e-06
5.48135e-08
3.64805e-06
4.46178e-08
3.57518e-06
3.85447e-08
3.50597e-06
3.54614e-08
3.44003e-06
3.43244e-08
3.37705e-06
3.41427e-08
3.3168e-06
3.41509e-08
3.25906e-06
3.37256e-08
3.20356e-06
3.27196e-08
3.14987e-06
3.13797e-08
3.09718e-06
3.05306e-08
3.04429e-06
3.17292e-08
2.98932e-06
3.68043e-08
2.92985e-06
4.80177e-08
2.86292e-06
6.76527e-08
2.78521e-06
9.80266e-08
2.69274e-06
1.43089e-07
2.58152e-06
2.15182e-07
3.0334e-07
2.4503e-06
2.46733e-08
4.53234e-08
3.64557e-08
1.02755e-07
5.1156e-08
7.24078e-08
8.76755e-08
-2.70257e-08
1.1124e-07
-9.79031e-08
1.36632e-07
-1.63097e-07
1.70706e-07
-2.25744e-07
2.16226e-07
-2.87545e-07
2.73261e-07
-3.48276e-07
3.41539e-07
-4.07144e-07
4.20713e-07
-4.6317e-07
5.09743e-07
-5.15411e-07
6.06847e-07
-5.62719e-07
7.09748e-07
-6.04138e-07
8.16083e-07
-6.39116e-07
9.23255e-07
-6.6704e-07
1.02885e-06
-6.87888e-07
1.13097e-06
-7.0232e-07
1.2287e-06
-7.1162e-07
1.32229e-06
-7.1752e-07
1.41323e-06
-7.21753e-07
1.50404e-06
-7.25778e-07
1.59812e-06
-7.30699e-07
1.69943e-06
-7.37148e-07
1.81215e-06
-7.45113e-07
1.94024e-06
-7.53821e-07
2.08723e-06
-7.61768e-07
2.25583e-06
-7.66698e-07
2.44823e-06
-7.65937e-07
2.66543e-06
-7.55885e-07
2.90794e-06
-7.33012e-07
3.17455e-06
-6.92925e-07
3.46148e-06
-6.3067e-07
3.76454e-06
-5.42705e-07
4.07907e-06
-4.22538e-07
4.38898e-06
-2.56518e-07
4.66535e-06
-3.47604e-08
4.88518e-06
2.31121e-07
5.034e-06
5.24333e-07
5.10274e-06
8.25755e-07
5.08092e-06
1.11675e-06
4.95436e-06
1.37593e-06
4.71297e-06
1.57647e-06
4.36194e-06
1.69463e-06
3.92592e-06
1.71878e-06
3.44464e-06
1.645e-06
2.98979e-06
1.49663e-06
2.6775e-06
1.35175e-06
2.54586e-06
1.24071e-06
2.52195e-06
1.06853e-06
2.54742e-06
7.49888e-07
2.57521e-06
3.44711e-07
2.61568e-06
-3.0027e-08
2.86771e-06
-5.54725e-07
3.3249e-06
-1.33754e-06
3.67267e-06
-1.86795e-06
3.63927e-06
-1.73942e-06
3.2019e-06
-1.04903e-06
1.91346e-06
3.18122e-07
-2.67538e-07
1.96879e-06
-2.95977e-06
3.42566e-06
-5.23839e-06
4.35396e-06
-6.90981e-06
4.8454e-06
-8.02974e-06
4.94669e-06
-8.67144e-06
4.80679e-06
-8.99438e-06
4.48721e-06
-9.09333e-06
4.06866e-06
-9.0695e-06
3.60464e-06
-9.0162e-06
3.13534e-06
-8.98829e-06
2.69074e-06
-9.00619e-06
2.28533e-06
-9.0665e-06
1.92266e-06
-9.1546e-06
1.60068e-06
-9.25428e-06
1.31543e-06
-9.35246e-06
1.06255e-06
-9.44042e-06
8.37629e-07
-9.51306e-06
6.36296e-07
-9.56789e-06
4.54297e-07
-9.60402e-06
2.87602e-07
-9.62152e-06
1.32219e-07
-9.62112e-06
-1.62182e-08
-9.60404e-06
-1.62178e-07
-9.57096e-06
-3.10634e-07
-9.521e-06
-4.68865e-07
-9.45094e-06
-6.46239e-07
-9.35368e-06
-8.5462e-07
-9.21631e-06
-1.10783e-06
-9.01864e-06
-1.41921e-06
-8.7333e-06
-1.79626e-06
-8.32988e-06
-2.23215e-06
-7.7842e-06
-2.69611e-06
-7.09145e-06
-3.13073e-06
-6.27521e-06
-3.46584e-06
-5.38318e-06
-3.64829e-06
-4.47037e-06
-3.66597e-06
-3.58265e-06
-3.5456e-06
-2.74922e-06
-3.33267e-06
-1.98306e-06
-3.07244e-06
-1.28527e-06
-2.80065e-06
-6.50508e-07
-2.54194e-06
-7.28369e-08
-2.31129e-06
4.48065e-07
-2.10688e-06
9.14964e-07
-1.92366e-06
1.33424e-06
-1.75862e-06
1.71545e-06
-1.60926e-06
2.06543e-06
-1.47473e-06
2.38865e-06
-1.35483e-06
2.68835e-06
-1.249e-06
2.96724e-06
-1.1562e-06
3.22783e-06
-1.07511e-06
3.47245e-06
-1.00435e-06
3.70319e-06
-9.42641e-07
3.92188e-06
-8.88845e-07
4.13011e-06
-8.4188e-07
4.32922e-06
-8.00654e-07
4.52028e-06
-7.6407e-07
4.70411e-06
-7.30987e-07
4.88123e-06
-7.00247e-07
5.05186e-06
-6.70653e-07
5.21594e-06
-6.41015e-07
5.37308e-06
-6.10155e-07
5.52264e-06
-5.76973e-07
5.66371e-06
-5.40487e-07
5.79519e-06
-4.99911e-07
5.91587e-06
-4.54667e-07
6.02466e-06
-4.04346e-07
6.12063e-06
-3.48843e-07
6.20277e-06
-2.88543e-07
6.27016e-06