/*--------------------------------*- C++ -*----------------------------------*\
  =========                 |
  \\      /  F ield         | OpenFOAM: The Open Source CFD Toolbox
   \\    /   O peration     | Website:  https://openfoam.org
    \\  /    A nd           | Version:  9
     \\/     M anipulation  |
\*---------------------------------------------------------------------------*/
FoamFile
{
    format      ascii;
    class       volScalarField;
    location    "100";
    object      T;
}
// * * * * * * * * * * * * * * * * * * * * * * * * * * * * * * * * * * * * * //

dimensions      [0 0 0 1 0 0 0];

internalField   nonuniform List<scalar> 
12225
(
-4.28451e+128
5.48172e+128
-5.95656e+128
6.09643e+128
-6.00051e+128
5.7299e+128
-5.3355e+128
4.86134e+128
-4.3443e+128
3.81366e+128
-3.29126e+128
2.79214e+128
-2.32543e+128
1.89543e+128
-1.50245e+128
1.14341e+128
-8.1134e+127
4.90894e+127
4.10379e+128
-4.97026e+128
5.38353e+128
-5.50778e+128
5.42113e+128
-5.17709e+128
4.82123e+128
-4.39321e+128
3.92632e+128
-3.44702e+128
2.97505e+128
-2.52403e+128
2.10226e+128
-1.71365e+128
1.3586e+128
-1.03457e+128
7.36181e+127
-4.54783e+127
-3.88835e+128
4.49604e+128
-4.84203e+128
4.94949e+128
-4.87156e+128
4.65309e+128
-4.33417e+128
3.95021e+128
-3.53104e+128
3.10046e+128
-2.67627e+128
2.27076e+128
-1.89146e+128
1.542e+128
-1.22293e+128
9.3241e+127
-6.66978e+127
4.23643e+127
3.63963e+128
-4.04885e+128
4.32773e+128
-4.41787e+128
4.3482e+128
-4.15438e+128
3.87094e+128
-3.52909e+128
3.15541e+128
-2.77118e+128
2.39236e+128
-2.03002e+128
1.691e+128
-1.3787e+128
1.09387e+128
-8.35436e+127
6.01628e+127
-3.92743e+127
-3.35827e+128
3.61908e+128
-3.83555e+128
3.9088e+128
-3.84721e+128
3.67727e+128
-3.42799e+128
3.12654e+128
-2.79635e+128
2.45633e+128
-2.12073e+128
1.79948e+128
-1.49881e+128
1.22193e+128
-9.69799e+127
7.42031e+127
-5.38089e+127
3.596e+127
3.04402e+128
-3.19764e+128
3.35969e+128
-3.4177e+128
3.3644e+128
-3.21783e+128
3.00162e+128
-2.73905e+128
2.4506e+128
-2.15292e+128
1.85866e+128
-1.57672e+128
1.31273e+128
-1.06975e+128
8.48941e+127
-6.50448e+127
4.74465e+127
-3.2278e+127
-2.69562e+128
2.77583e+128
-2.89368e+128
2.93936e+128
-2.89517e+128
2.77177e+128
-2.58782e+128
2.36291e+128
-2.11471e+128
1.85778e+128
-1.60328e+128
1.35912e+128
-1.13042e+128
9.20065e+127
-7.29374e+127
5.58845e+127
-4.09002e+127
2.81268e+127
2.31063e+128
-2.34516e+128
2.43033e+128
-2.46788e+128
2.43429e+128
-2.33434e+128
2.1822e+128
-1.99405e+128
1.78495e+128
-1.5675e+128
1.35148e+128
-1.14389e+128
9.49354e+127
-7.70594e+127
6.09009e+127
-4.65289e+127
3.40028e+127
-2.34152e+127
-1.88533e+128
1.89705e+128
-1.96177e+128
1.99655e+128
-1.97588e+128
1.90019e+128
-1.77984e+128
1.62794e+128
-1.45715e+128
1.27827e+128
-1.0998e+128
9.27901e+127
-7.66722e+127
6.18801e+127
-4.85547e+127
3.67722e+127
-2.65856e+127
1.80437e+127
1.41455e+128
-1.42261e+128
1.4793e+128
-1.51771e+128
1.51313e+128
-1.46319e+128
1.37515e+128
-1.25945e+128
1.12662e+128
-9.8582e+127
8.44364e+127
-7.07644e+127
5.79355e+127
-4.6183e+127
3.56431e+127
-2.63909e+127
1.84684e+127
-1.18937e+127
-8.9145e+127
9.12261e+127
-9.733e+127
1.02263e+128
-1.03822e+128
1.01624e+128
-9.61645e+127
8.82665e+127
-7.87948e+127
6.85211e+127
-5.80695e+127
4.79074e+127
-3.83608e+127
2.96413e+127
-2.18758e+127
1.51343e+127
-9.44852e+126
4.81845e+126
3.5547e+127
-4.01406e+127
4.7773e+127
-5.44549e+127
5.83236e+127
-5.89719e+127
5.67528e+127
-5.2329e+127
4.64223e+127
-3.96885e+127
3.26647e+127
-2.5758e+127
1.92569e+127
-1.3352e+127
8.15973e+126
-3.74398e+126
1.30012e+125
2.68914e+126
2.33157e+127
-1.51404e+127
5.00799e+126
4.12168e+126
-1.07644e+127
1.45579e+127
-1.57703e+127
1.49446e+127
-1.26862e+127
9.55237e+126
-6.00453e+126
2.39615e+126
1.01919e+126
-4.07114e+126
6.65374e+126
-8.70882e+126
1.02143e+127
-1.11778e+127
-9.88932e+127
8.5301e+127
-7.10824e+127
5.82175e+127
-4.77379e+127
3.98811e+127
-3.44088e+127
3.08664e+127
-2.8749e+127
2.75906e+127
-2.70039e+127
2.66901e+127
-2.64325e+127
2.60836e+127
-2.55495e+127
2.47774e+127
-2.37455e+127
2.24565e+127
1.96467e+128
-1.75134e+128
1.54789e+128
-1.36501e+128
1.20786e+128
-1.07668e+128
9.68652e+127
-8.79666e+127
8.05413e+127
-7.42021e+127
6.86315e+127
-6.35856e+127
5.88874e+127
-5.44146e+127
5.00878e+127
-4.58592e+127
4.17046e+127
-3.76171e+127
-3.2301e+128
2.9103e+128
-2.62022e+128
2.3619e+128
-2.13467e+128
1.9356e+128
-1.76058e+128
1.60533e+128
-1.46592e+128
1.3391e+128
-1.22234e+128
1.11377e+128
-1.01204e+128
9.1624e+127
-8.25751e+127
7.40156e+127
-6.59179e+127
5.82627e+127
4.878e+128
-4.41605e+128
4.00922e+128
-3.65045e+128
3.33204e+128
-3.04655e+128
2.78754e+128
-2.54982e+128
2.32946e+128
-2.12369e+128
1.9306e+128
-1.74897e+128
1.57799e+128
-1.41716e+128
1.26612e+128
-1.12456e+128
9.92204e+127
-8.68737e+127
-7.03199e+128
6.38577e+128
-5.82969e+128
5.34469e+128
-4.91326e+128
4.52133e+128
-4.15863e+128
3.81833e+128
-3.49626e+128
3.19018e+128
-2.89907e+128
2.62262e+128
-2.3609e+128
2.11407e+128
-1.88223e+128
1.66538e+128
-1.4633e+128
1.27563e+128
9.85156e+128
-8.97761e+128
8.24749e+128
-7.62084e+128
7.06329e+128
-6.54982e+128
6.06438e+128
-5.59802e+128
5.14678e+128
-4.70979e+128
4.2879e+128
-3.88272e+128
3.49599e+128
-3.12924e+128
2.7836e+128
-2.4597e+128
2.1577e+128
-1.87732e+128
-1.27273e+129
1.16601e+129
-1.08106e+129
1.00986e+129
-9.46212e+128
8.86065e+128
-8.27215e+128
7.68729e+128
-7.1047e+128
6.52727e+128
-5.95983e+128
5.40761e+128
-4.8754e+128
4.36714e+128
-3.88574e+128
3.43305e+128
-3.00999e+128
2.61662e+128
1.51484e+129
-1.39697e+129
1.30899e+129
-1.23711e+129
1.17167e+129
-1.10718e+129
1.04115e+129
-9.72969e+128
9.0304e+128
-8.32249e+128
7.61624e+128
-6.92153e+128
6.24688e+128
-5.59912e+128
4.98325e+128
-4.40257e+128
3.85892e+128
-3.35283e+128
-1.73723e+129
1.61688e+129
-1.53579e+129
1.47127e+129
-1.40949e+129
1.34386e+129
-1.2722e+129
1.19474e+129
-1.11283e+129
1.02822e+129
-9.42652e+128
8.57715e+128
-7.74717e+128
6.94684e+128
-6.18366e+128
5.46265e+128
-4.7867e+128
4.15694e+128
1.93753e+129
-1.82683e+129
1.76484e+129
-1.71618e+129
1.66297e+129
-1.59855e+129
1.52202e+129
-1.43508e+129
1.34041e+129
-1.24087e+129
1.13909e+129
-1.03733e+129
9.37431e+128
-8.40796e+128
7.48453e+128
-6.61091e+128
5.7912e+128
-5.02714e+128
-2.11283e+129
2.02881e+129
-2.00012e+129
1.97541e+129
-1.93446e+129
1.87248e+129
-1.79099e+129
1.69379e+129
-1.58525e+129
1.46949e+129
-1.35013e+129
1.23019e+129
-1.11204e+129
9.97512e+128
-8.87921e+128
7.84155e+128
-6.86747e+128
5.9594e+128
2.25986e+129
-2.22629e+129
2.24621e+129
-2.25196e+129
2.22527e+129
-2.16573e+129
2.07846e+129
-1.96985e+129
1.84614e+129
-1.71282e+129
1.57455e+129
-1.43511e+129
1.29746e+129
-1.16386e+129
1.03591e+129
-9.14707e+128
8.00915e+128
-6.94848e+128
-2.37521e+129
2.42471e+129
-2.50785e+129
2.54799e+129
-2.53568e+129
2.47758e+129
-2.38322e+129
2.26184e+129
-2.12161e+129
1.96943e+129
-1.81099e+129
1.65087e+129
-1.4926e+129
1.33886e+129
-1.19156e+129
1.052e+129
-9.20982e+128
7.98892e+128
2.45549e+129
-2.63159e+129
2.78943e+129
-2.8646e+129
2.86517e+129
-2.80682e+129
2.70384e+129
-2.5683e+129
2.41027e+129
-2.23803e+129
2.0583e+129
-1.87642e+129
1.69652e+129
-1.52168e+129
1.35414e+129
-1.19541e+129
1.04641e+129
-9.07608e+128
-2.49769e+129
2.85625e+129
-3.09421e+129
3.20186e+129
-3.21272e+129
3.15217e+129
-3.03903e+129
2.88804e+129
-2.71104e+129
2.51766e+129
-2.31562e+129
2.11101e+129
-1.90855e+129
1.71176e+129
-1.52317e+129
1.34451e+129
-1.17683e+129
1.02068e+129
2.49951e+129
-3.10918e+129
3.42393e+129
-3.55904e+129
3.57721e+129
-3.51256e+129
3.38786e+129
-3.22024e+129
3.02324e+129
-2.80774e+129
2.58245e+129
-2.35423e+129
2.12837e+129
-1.90882e+129
1.69842e+129
-1.49911e+129
1.31208e+129
-1.13796e+129
-2.45972e+129
3.40103e+129
-3.77861e+129
3.93504e+129
-3.9577e+129
3.8873e+129
-3.74985e+129
3.56458e+129
-3.34662e+129
3.10811e+129
-2.8587e+129
2.60603e+129
-2.35596e+129
2.11287e+129
-1.87993e+129
1.65927e+129
-1.45223e+129
1.25951e+129
-6.24185e+128
5.68472e+128
-5.17112e+128
4.70014e+128
-4.26967e+128
3.87706e+128
-3.51949e+128
3.19416e+128
-2.89837e+128
2.62957e+128
-2.3854e+128
2.16367e+128
-1.96237e+128
1.77965e+128
-1.61381e+128
1.46333e+128
-1.32678e+128
1.20288e+128
-1.09047e+128
9.88493e+127
-8.95972e+127
8.12037e+127
-7.35889e+127
6.66806e+127
-6.04133e+127
5.47274e+127
-4.95688e+127
4.48886e+127
-4.06424e+127
3.67899e+127
-3.32946e+127
3.01232e+127
-2.72459e+127
2.46354e+127
-2.2267e+127
2.01185e+127
-1.81696e+127
1.64021e+127
-1.47993e+127
1.33463e+127
-1.20294e+127
1.08363e+127
-9.75574e+126
8.77752e+126
-7.89233e+126
7.09169e+126
-6.36785e+126
5.71372e+126
-5.12296e+126
4.58977e+126
-4.10887e+126
3.67541e+126
-3.28498e+126
2.93351e+126
-2.61733e+126
2.33306e+126
-2.07765e+126
1.84829e+126
-1.64242e+126
1.45778e+126
-1.29228e+126
1.14407e+126
-1.01148e+126
8.93008e+125
-7.87278e+125
6.93043e+125
-6.09166e+125
5.34645e+125
-4.68558e+125
4.10045e+125
-3.58319e+125
3.12662e+125
-2.72422e+125
2.3701e+125
-2.05892e+125
1.78588e+125
-1.54665e+125
1.33735e+125
-1.15453e+125
9.95077e+124
-8.56221e+124
7.35497e+124
-6.30709e+124
5.39907e+124
-4.61358e+124
3.93529e+124
-3.35063e+124
2.84758e+124
-2.41557e+124
2.04528e+124
-1.72848e+124
1.45798e+124
-1.22745e+124
1.03136e+124
-8.64864e+123
7.23769e+123
-6.04419e+123
5.03654e+123
-4.1874e+123
3.47321e+123
-2.8737e+123
2.37143e+123
-1.95145e+123
1.60099e+123
-1.30904e+123
1.06615e+123
-8.64251e+122
6.96443e+122
-5.56831e+122
4.40365e+122
-3.42696e+122
2.60063e+122
-1.89175e+122
1.27116e+122
-7.12505e+121
1.91364e+121
3.15586e+121
-8.31407e+121
1.37974e+122
-1.98568e+122
2.67673e+122
-3.48379e+122
4.44235e+122
-5.5937e+122
6.98643e+122
-8.6781e+122
1.07371e+123
-1.3245e+123
1.62988e+123
-2.00142e+123
2.45289e+123
-3.00061e+123
3.66394e+123
-4.46575e+123
5.433e+123
-6.59737e+123
7.99594e+123
-9.67202e+123
1.1676e+124
-1.40661e+124
1.69098e+124
-2.02844e+124
2.42783e+124
-2.89922e+124
3.45398e+124
-4.10492e+124
4.86636e+124
-5.75417e+124
6.78586e+124
-7.98052e+124
9.35883e+124
-1.09429e+125
1.27562e+125
-1.48231e+125
1.71687e+125
-1.98183e+125
2.27968e+125
-2.61279e+125
2.98334e+125
-3.39323e+125
3.84391e+125
-4.33635e+125
4.8708e+125
-5.44672e+125
6.06256e+125
-6.71566e+125
7.40203e+125
-8.11616e+125
8.8509e+125
-9.5972e+125
1.03439e+126
-1.10775e+126
1.17817e+126
-1.24373e+126
1.30213e+126
-1.35063e+126
1.38594e+126
-1.40411e+126
1.40027e+126
-1.36841e+126
5.72876e+128
-5.19154e+128
4.70804e+128
-4.27091e+128
3.87478e+128
-3.51541e+128
3.18923e+128
-2.89312e+128
2.62432e+128
-2.38031e+128
2.15884e+128
-1.95784e+128
1.77544e+128
-1.60994e+128
1.45977e+128
-1.32354e+128
1.19994e+128
-1.08782e+128
9.86106e+127
-8.9384e+127
8.10142e+127
-7.34217e+127
6.65343e+127
-6.02864e+127
5.46186e+127
-4.94769e+127
4.48124e+127
-4.05807e+127
3.67416e+127
-3.32587e+127
3.00988e+127
-2.72321e+127
2.46313e+127
-2.22718e+127
2.01312e+127
-1.81895e+127
1.64281e+127
-1.48307e+127
1.33821e+127
-1.20687e+127
1.08783e+127
-9.7996e+126
8.82257e+126
-7.93797e+126
7.13743e+126
-6.41334e+126
5.75873e+126
-5.16723e+126
4.63302e+126
-4.15088e+126
3.71601e+126
-3.32401e+126
2.97087e+126
-2.65295e+126
2.36692e+126
-2.10978e+126
1.87876e+126
-1.67131e+126
1.48511e+126
-1.31809e+126
1.16837e+126
-1.03429e+126
9.14337e+125
-8.07142e+125
7.11506e+125
-6.2632e+125
5.50543e+125
-4.83234e+125
4.23541e+125
-3.70684e+125
3.23951e+125
-2.82697e+125
2.46332e+125
-2.14326e+125
1.86196e+125
-1.6151e+125
1.3988e+125
-1.20954e+125
1.04421e+125
-9.00006e+124
7.74421e+124
-6.65231e+124
5.70453e+124
-4.88322e+124
4.17274e+124
-3.55921e+124
3.03036e+124
-2.57533e+124
2.18456e+124
-1.84961e+124
1.56306e+124
-1.3184e+124
1.1099e+124
-9.32548e+123
7.81983e+123
-6.54393e+123
5.46472e+123
-4.55359e+123
3.78581e+123
-3.14007e+123
2.59802e+123
-2.14389e+123
1.76418e+123
-1.44734e+123
1.18338e+123
-9.63785e+122
7.81243e+122
-6.29523e+122
5.03296e+122
-3.97992e+122
3.0968e+122
-2.34958e+122
1.7085e+122
-1.14719e+122
6.41783e+121
-1.702e+121
-2.88672e+121
7.5571e+121
-1.25232e+122
1.80123e+122
-2.42734e+122
3.15866e+122
-4.02731e+122
5.07071e+122
-6.33287e+122
7.86591e+122
-9.73178e+122
1.20043e+123
-1.47713e+123
1.81375e+123
-2.22275e+123
2.71889e+123
-3.3197e+123
4.04585e+123
-4.92174e+123
5.976e+123
-7.24218e+123
8.75943e+123
-1.05733e+124
1.27365e+124
-1.53099e+124
1.83635e+124
-2.19772e+124
2.6242e+124
-3.12608e+124
3.71494e+124
-4.40372e+124
5.20679e+124
-6.13999e+124
7.22058e+124
-8.46729e+124
9.90013e+124
-1.15403e+125
1.34099e+125
-1.55317e+125
1.79285e+125
-2.0623e+125
2.36366e+125
-2.69891e+125
3.06977e+125
-3.47756e+125
3.92315e+125
-4.40679e+125
4.92797e+125
-5.48531e+125
6.0764e+125
-6.69762e+125
7.344e+125
-8.00907e+125
8.68462e+125
-9.36056e+125
1.00247e+126
-1.06622e+126
1.12558e+126
-1.17846e+126
1.22238e+126
-1.25438e+126
1.27086e+126
-1.26742e+126
1.23864e+126
-5.22636e+128
4.73175e+128
-4.28592e+128
3.88345e+128
-3.51964e+128
3.19045e+128
-2.89234e+128
2.62224e+128
-2.37744e+128
2.1555e+128
-1.95428e+128
1.77181e+128
-1.60634e+128
1.45628e+128
-1.3202e+128
1.19679e+128
-1.08487e+128
9.83369e+127
-8.91319e+127
8.07837e+127
-7.32124e+127
6.63455e+127
-6.01173e+127
5.44684e+127
-4.93446e+127
4.46971e+127
-4.04814e+127
3.66574e+127
-3.31885e+127
3.00418e+127
-2.71873e+127
2.45979e+127
-2.22489e+127
2.01181e+127
-1.81852e+127
1.6432e+127
-1.48417e+127
1.33994e+127
-1.20915e+127
1.09057e+127
-9.83074e+126
8.85657e+126
-7.97405e+126
7.17488e+126
-6.45154e+126
5.79718e+126
-5.20557e+126
4.671e+126
-4.1882e+126
3.7524e+126
-3.35927e+126
3.00486e+126
-2.68557e+126
2.3981e+126
-2.13948e+126
1.90697e+126
-1.69807e+126
1.51047e+126
-1.34207e+126
1.19099e+126
-1.05556e+126
9.34277e+125
-8.25841e+125
7.29026e+125
-6.42685e+125
5.65788e+125
-4.97393e+125
4.36643e+125
-3.82759e+125
3.35038e+125
-2.92836e+125
2.55573e+125
-2.22719e+125
1.93796e+125
-1.68372e+125
1.46057e+125
-1.26502e+125
1.0939e+125
-9.44404e+124
8.13998e+124
-7.00425e+124
6.01674e+124
-5.15952e+124
4.41667e+124
-3.77403e+124
3.21906e+124
-2.74066e+124
2.32903e+124
-1.97553e+124
1.67252e+124
-1.41331e+124
1.192e+124
-1.00342e+124
8.43028e+123
-7.06875e+123
5.91511e+123
-4.93939e+123
4.11569e+123
-3.42162e+123
2.8379e+123
-2.34793e+123
1.93744e+123
-1.59426e+123
1.3079e+123
-1.06933e+123
8.70853e+122
-7.05863e+122
5.68729e+122
-4.54632e+122
3.59442e+122
-2.79604e+122
2.1204e+122
-1.54059e+122
1.03274e+122
-5.75275e+121
1.48177e+121
2.67674e+121
-6.91201e+121
1.14181e+122
-1.64013e+122
2.20875e+122
-2.87309e+122
3.6623e+122
-4.61035e+122
5.75716e+122
-7.15003e+122
8.84514e+122
-1.09094e+123
1.34225e+123
-1.64793e+123
2.01926e+123
-2.46961e+123
3.01485e+123
-3.67369e+123
4.46819e+123
-5.42424e+123
6.57218e+123
-7.9474e+123
9.59105e+123
-1.15508e+124
1.38816e+124
-1.66467e+124
1.99184e+124
-2.37787e+124
2.83209e+124
-3.36494e+124
3.98814e+124
-4.71468e+124
5.55887e+124
-6.53636e+124
7.66408e+124
-8.96016e+124
1.04438e+125
-1.2135e+125
1.40545e+125
-1.62229e+125
1.86607e+125
-2.13876e+125
2.44213e+125
-2.77776e+125
3.14685e+125
-3.55019e+125
3.98801e+125
-4.45987e+125
4.96451e+125
-5.49976e+125
6.06235e+125
-6.64778e+125
7.25018e+125
-7.86213e+125
8.47448e+125
-9.07616e+125
9.65385e+125
-1.01917e+126
1.0671e+126
-1.10692e+126
1.13594e+126
-1.15091e+126
1.14786e+126
-1.12186e+126
4.754e+128
-4.3029e+128
3.8956e+128
-3.52771e+128
3.19522e+128
-2.89458e+128
2.62258e+128
-2.3764e+128
2.1535e+128
-1.95163e+128
1.76874e+128
-1.60304e+128
1.45288e+128
-1.31679e+128
1.19345e+128
-1.08164e+128
9.80291e+127
-8.88412e+127
8.05116e+127
-7.29596e+127
6.61124e+127
-5.99039e+127
5.42742e+127
-4.91692e+127
4.45397e+127
-4.03413e+127
3.65338e+127
-3.30806e+127
2.99486e+127
-2.71081e+127
2.45317e+127
-2.21949e+127
2.00755e+127
-1.81531e+127
1.64097e+127
-1.48284e+127
1.33943e+127
-1.20937e+127
1.09142e+127
-9.84487e+126
8.87543e+126
-7.99679e+126
7.20068e+126
-6.47963e+126
5.82684e+126
-5.23618e+126
4.70205e+126
-4.21933e+126
3.78332e+126
-3.38971e+126
3.0346e+126
-2.71442e+126
2.42594e+126
-2.16619e+126
1.9325e+126
-1.7224e+126
1.53361e+126
-1.36403e+126
1.21177e+126
-1.07518e+126
9.52826e+125
-8.43359e+125
7.45523e+125
-6.58183e+125
5.803e+125
-5.10934e+125
4.49234e+125
-3.94423e+125
3.45801e+125
-3.0273e+125
2.64634e+125
-2.30987e+125
2.01315e+125
-1.75189e+125
1.52219e+125
-1.32054e+125
1.14381e+125
-9.89138e+124
8.53994e+124
-7.36097e+124
6.33411e+124
-5.44119e+124
4.66604e+124
-3.99426e+124
3.41306e+124
-2.91112e+124
2.47841e+124
-2.10607e+124
1.78629e+124
-1.51218e+124
1.27769e+124
-1.07751e+124
9.06942e+123
-7.61899e+123
6.38792e+123
-5.34497e+123
4.46299e+123
-3.7185e+123
3.09123e+123
-2.56373e+123
2.12096e+123
-1.75006e+123
1.44001e+123
-1.18129e+123
9.65753e+122
-7.86428e+122
6.37359e+122
-5.13453e+122
4.10356e+122
-3.24333e+122
2.5217e+122
-1.91085e+122
1.38641e+122
-9.26793e+121
5.12444e+121
-1.25232e+121
-2.5219e+121
6.36999e+121
-1.04683e+122
1.50043e+122
-2.01835e+122
2.62372e+122
-3.34305e+122
4.20726e+122
-5.25266e+122
6.52225e+122
-8.06709e+122
9.94796e+122
-1.22372e+123
1.50209e+123
-1.84014e+123
2.24999e+123
-2.746e+123
3.34513e+123
-4.06733e+123
4.93602e+123
-5.97862e+123
7.22712e+123
-8.7187e+123
1.04964e+124
-1.26099e+124
1.51162e+124
-1.80806e+124
2.15773e+124
-2.56904e+124
3.05144e+124
-3.6155e+124
4.27298e+124
-5.03682e+124
5.92119e+124
-6.9414e+124
8.1139e+124
-9.45608e+124
1.09861e+125
-1.27227e+125
1.46848e+125
-1.68908e+125
1.93587e+125
-2.21048e+125
2.51432e+125
-2.8485e+125
3.21376e+125
-3.6103e+125
4.03773e+125
-4.49494e+125
4.97994e+125
-5.48979e+125
6.02041e+125
-6.5665e+125
7.12131e+125
-7.67656e+125
8.22219e+125
-8.74616e+125
9.2341e+125
-9.66895e+125
1.00304e+126
-1.0294e+126
1.04303e+126
-1.04033e+126
1.01685e+126
-4.31451e+128
3.90467e+128
-3.53428e+128
3.19951e+128
-2.89688e+128
2.62324e+128
-2.37574e+128
2.15182e+128
-1.94919e+128
1.76577e+128
-1.59971e+128
1.44934e+128
-1.31316e+128
1.1898e+128
-1.07805e+128
9.76804e+127
-8.85066e+127
8.01935e+127
-7.26599e+127
6.5832e+127
-5.96433e+127
5.40335e+127
-4.89482e+127
4.43381e+127
-4.01585e+127
3.63691e+127
-3.29332e+127
2.98177e+127
-2.69928e+127
2.44311e+127
-2.21082e+127
2.00017e+127
-1.80914e+127
1.63592e+127
-1.47883e+127
1.33639e+127
-1.20723e+127
1.0901e+127
-9.839e+126
8.87604e+126
-8.00302e+126
7.2117e+126
-6.49461e+126
5.845e+126
-5.25676e+126
4.72435e+126
-4.24277e+126
3.80742e+126
-3.41411e+126
3.059e+126
-2.73857e+126
2.44962e+126
-2.18925e+126
1.9548e+126
-1.74385e+126
1.55417e+126
-1.38368e+126
1.2305e+126
-1.09302e+126
9.69832e+125
-8.59523e+125
7.60844e+125
-6.72654e+125
5.93922e+125
-5.23711e+125
4.61173e+125
-4.0554e+125
3.56112e+125
-3.12259e+125
2.73405e+125
-2.39032e+125
2.08668e+125
-1.81885e+125
1.58298e+125
-1.37555e+125
1.19344e+125
-1.03379e+125
8.94053e+124
-7.71943e+124
6.65405e+124
-5.72604e+124
4.91901e+124
-4.21837e+124
3.61112e+124
-3.08571e+124
2.63191e+124
-2.24066e+124
1.90395e+124
-1.61475e+124
1.36684e+124
-1.15476e+124
9.73711e+123
-8.19467e+123
6.88325e+123
-5.77037e+123
4.82772e+123
-4.03069e+123
3.35801e+123
-2.79131e+123
2.31478e+123
-1.91484e+123
1.57988e+123
-1.29988e+123
1.06625e+123
-8.71606e+122
7.09666e+122
-5.75046e+122
4.63145e+122
-3.70027e+122
2.92317e+122
-2.2711e+122
1.71889e+122
-1.2445e+122
8.2836e+121
-4.52768e+121
1.01266e+121
2.41905e+121
-5.9237e+121
9.66188e+121
-1.38045e+122
1.8539e+122
-2.40765e+122
3.06591e+122
-3.85688e+122
4.81369e+122
-5.97555e+122
7.38899e+122
-9.10936e+122
1.12025e+123
-1.37466e+123
1.68347e+123
-2.05767e+123
2.51029e+123
-3.05669e+123
3.71492e+123
-4.50618e+123
5.45525e+123
-6.59103e+123
7.94709e+123
-9.56228e+123
1.14814e+124
-1.3756e+124
1.64448e+124
-1.96149e+124
2.33422e+124
-2.77119e+124
3.28196e+124
-3.87716e+124
4.56849e+124
-5.36876e+124
6.29187e+124
-7.35271e+124
8.56708e+124
-9.95147e+124
1.15229e+125
-1.32985e+125
1.52953e+125
-1.75294e+125
2.00159e+125
-2.27676e+125
2.57948e+125
-2.91042e+125
3.26979e+125
-3.65724e+125
4.07177e+125
-4.5116e+125
4.97406e+125
-5.45546e+125
5.95098e+125
-6.45452e+125
6.95855e+125
-7.45394e+125
7.92975e+125
-8.37294e+125
8.76801e+125
-9.09652e+125
9.33636e+125
-9.4608e+125
9.4372e+125
-9.22519e+125
3.90711e+128
-3.53576e+128
3.19999e+128
-2.89636e+128
2.62181e+128
-2.37351e+128
2.14894e+128
-1.94579e+128
1.76198e+128
-1.59566e+128
1.44514e+128
-1.30888e+128
1.18554e+128
-1.07385e+128
9.72722e+127
-8.81134e+127
7.98181e+127
-7.23041e+127
6.5497e+127
-5.93299e+127
5.3742e+127
-4.86785e+127
4.40899e+127
-3.99312e+127
3.6162e+127
-3.27456e+127
2.96487e+127
-2.68413e+127
2.42962e+127
-2.19888e+127
1.98969e+127
-1.80003e+127
1.62808e+127
-1.47217e+127
1.33082e+127
-1.20266e+127
1.08647e+127
-9.81137e+126
8.85644e+126
-7.99063e+126
7.20569e+126
-6.49415e+126
5.84928e+126
-5.26499e+126
4.73578e+126
-4.25669e+126
3.82319e+126
-3.43119e+126
3.07694e+126
-2.75702e+126
2.4683e+126
-2.20791e+126
1.97323e+126
-1.7619e+126
1.57173e+126
-1.40068e+126
1.24688e+126
-1.10884e+126
9.85044e+125
-8.74105e+125
7.74766e+125
-6.85896e+125
6.06467e+125
-5.35549e+125
4.72301e+125
-4.1596e+125
3.65832e+125
-3.21291e+125
2.81767e+125
-2.46743e+125
2.15752e+125
-1.8837e+125
1.64212e+125
-1.42932e+125
1.24215e+125
-1.07779e+125
9.33688e+124
-8.0754e+124
6.97291e+124
-6.0109e+124
5.17286e+124
-4.44402e+124
3.81122e+124
-3.26271e+124
2.78809e+124
-2.37812e+124
2.0246e+124
-1.72034e+124
1.45896e+124
-1.23487e+124
1.04315e+124
-8.79476e+123
7.4005e+123
-6.21524e+123
5.20962e+123
-4.35798e+123
3.63804e+123
-3.03051e+123
2.51878e+123
-2.08853e+123
1.72751e+123
-1.42518e+123
1.17247e+123
-9.61608e+122
7.85945e+122
-6.39796e+122
5.18299e+122
-4.173e+122
3.33242e+122
-2.63076e+122
2.04176e+122
-1.54264e+122
1.11347e+122
-7.36527e+121
3.95733e+121
-7.61405e+120
-2.36594e+121
5.56719e+121
-8.98904e+121
1.27878e+122
-1.71352e+122
2.22246e+122
-2.82779e+122
3.55534e+122
-4.43546e+122
5.50403e+122
-6.8036e+122
8.38472e+122
-1.03074e+123
1.26431e+123
-1.54762e+123
1.89068e+123
-2.30532e+123
2.80545e+123
-3.40743e+123
4.13044e+123
-4.99687e+123
6.03282e+123
-7.26856e+123
8.73915e+123
-1.0485e+124
1.25525e+124
-1.49946e+124
1.78718e+124
-2.12525e+124
2.52136e+124
-2.98414e+124
3.52318e+124
-4.14908e+124
4.87344e+124
-5.70883e+124
6.66878e+124
-7.76764e+124
9.02041e+124
-1.04426e+125
1.20498e+125
-1.38576e+125
1.58808e+125
-1.8133e+125
2.06263e+125
-2.337e+125
2.63705e+125
-2.96296e+125
3.31446e+125
-3.69064e+125
4.08991e+125
-4.50983e+125
4.94708e+125
-5.39728e+125
5.85487e+125
-6.31303e+125
6.76344e+125
-7.19615e+125
7.59931e+125
-7.95884e+125
8.25796e+125
-8.47661e+125
8.59054e+125
-8.57016e+125
8.37887e+125
-3.53004e+128
3.19442e+128
-2.89085e+128
2.61627e+128
-2.36792e+128
2.14328e+128
-1.94008e+128
1.75626e+128
-1.58997e+128
1.43951e+128
-1.30337e+128
1.18016e+128
-1.06866e+128
9.67728e+127
-8.76364e+127
7.9365e+127
-7.18759e+127
6.50945e+127
-5.89532e+127
5.33912e+127
-4.83532e+127
4.37894e+127
-3.96549e+127
3.59089e+127
-3.25146e+127
2.94389e+127
-2.66515e+127
2.41253e+127
-2.18357e+127
1.97605e+127
-1.78794e+127
1.61742e+127
-1.46285e+127
1.32273e+127
-1.19572e+127
1.08058e+127
-9.76207e+126
8.81603e+126
-7.95853e+126
7.18132e+126
-6.47675e+126
5.83805e+126
-5.25914e+126
4.73454e+126
-4.25932e+126
3.82899e+126
-3.4395e+126
3.0872e+126
-2.76872e+126
2.48103e+126
-2.22133e+126
1.98708e+126
-1.77593e+126
1.58576e+126
-1.41458e+126
1.26057e+126
-1.12228e+126
9.98151e+125
-8.86817e+125
7.87033e+125
-6.97672e+125
6.17719e+125
-5.46252e+125
4.82436e+125
-4.25517e+125
3.74807e+125
-3.29685e+125
2.89585e+125
-2.53997e+125
2.22455e+125
-1.9454e+125
1.6987e+125
-1.48102e+125
1.28923e+125
-1.12051e+125
9.72333e+124
-8.42395e+124
7.28635e+124
-6.292e+124
5.42428e+124
-4.6683e+124
4.0108e+124
-3.43989e+124
2.945e+124
-2.51675e+124
2.14678e+124
-1.82773e+124
1.55308e+124
-1.3171e+124
1.11474e+124
-9.41584e+123
7.93749e+123
-6.67816e+123
5.60771e+123
-4.69964e+123
3.93075e+123
-3.2809e+123
2.7326e+123
-2.27084e+123
1.88269e+123
-1.55705e+123
1.28437e+123
-1.05647e+123
8.6631e+122
-7.07902e+122
5.7611e+122
-4.66545e+122
3.75456e+122
-2.99631e+122
2.36316e+122
-1.83138e+122
1.38036e+122
-9.92068e+121
6.50421e+121
-3.40828e+121
4.96794e+120
2.36112e+121
-5.29581e+121
8.44179e+121
-1.19427e+122
1.59564e+122
-2.06611e+122
2.62612e+122
-3.29944e+122
4.11402e+122
-5.10284e+122
6.30497e+122
-7.76678e+122
9.54324e+122
-1.16995e+123
1.43129e+123
-1.74743e+123
2.12914e+123
-2.58904e+123
3.14198e+123
-3.80528e+123
4.5992e+123
-5.54727e+123
6.67679e+123
-8.01933e+123
9.61126e+123
-1.14943e+124
1.37162e+124
-1.63313e+124
1.94012e+124
-2.29952e+124
2.71911e+124
-3.20756e+124
3.77444e+124
-4.43025e+124
5.18641e+124
-6.05518e+124
7.04962e+124
-8.18342e+124
9.47071e+124
-1.09258e+125
1.2563e+125
-1.43957e+125
1.64368e+125
-1.86971e+125
2.11856e+125
-2.3908e+125
2.68664e+125
-3.00585e+125
3.34761e+125
-3.71049e+125
4.0923e+125
-4.49002e+125
4.89965e+125
-5.31617e+125
5.73332e+125
-6.14355e+125
6.5378e+125
-6.90525e+125
7.23308e+125
-7.50603e+125
7.70587e+125
-7.81057e+125
7.79327e+125
-7.6208e+125
3.18124e+128
-2.87872e+128
2.60502e+128
-2.35741e+128
2.13342e+128
-1.93079e+128
1.74747e+128
-1.58164e+128
1.43161e+128
-1.29587e+128
1.17306e+128
-1.06193e+128
9.61378e+127
-8.70382e+127
7.88028e+127
-7.1349e+127
6.4602e+127
-5.84943e+127
5.29648e+127
-4.79583e+127
4.34248e+127
-3.93192e+127
3.56008e+127
-3.22328e+127
2.91818e+127
-2.64178e+127
2.39136e+127
-2.16447e+127
1.95886e+127
-1.77255e+127
1.6037e+127
-1.45068e+127
1.31199e+127
-1.18629e+127
1.07236e+127
-9.69104e+126
8.75513e+126
-7.90692e+126
7.13821e+126
-6.44158e+126
5.81028e+126
-5.23804e+126
4.71935e+126
-4.24928e+126
3.82339e+126
-3.43766e+126
3.08845e+126
-2.77249e+126
2.48679e+126
-2.22863e+126
1.99553e+126
-1.78523e+126
1.59564e+126
-1.42484e+126
1.27109e+126
-1.1329e+126
1.00877e+126
-8.97318e+125
7.97334e+125
-7.07706e+125
6.27429e+125
-5.55593e+125
4.91374e+125
-4.34025e+125
3.82866e+125
-3.37284e+125
2.96718e+125
-2.60663e+125
2.28658e+125
-2.00288e+125
1.75176e+125
-1.5298e+125
1.3339e+125
-1.16129e+125
1.00941e+125
-8.76005e+124
7.59003e+124
-6.56554e+124
5.66996e+124
-4.88832e+124
4.2073e+124
-3.61494e+124
3.10056e+124
-2.65465e+124
2.26876e+124
-1.93538e+124
1.64785e+124
-1.40031e+124
1.18757e+124
-1.0051e+124
8.48929e+123
-7.15572e+123
6.01964e+123
-5.05399e+123
4.23491e+123
-3.54147e+123
2.95548e+123
-2.46114e+123
2.04492e+123
-1.69512e+123
1.40169e+123
-1.15601e+123
9.50681e+122
-7.79376e+122
6.3668e+122
-5.1796e+122
4.19258e+122
-3.37189e+122
2.68855e+122
-2.11768e+122
1.63785e+122
-1.23043e+122
8.79078e+121
-5.69206e+121
2.8754e+121
-2.16666e+120
-2.40395e+121
5.10615e+121
-8.01387e+121
1.12598e+122
-1.49901e+122
1.93698e+122
-2.45884e+122
3.08663e+122
-3.84621e+122
4.76811e+122
-5.88839e+122
7.24979e+122
-8.9029e+122
1.09075e+123
-1.33344e+123
1.62666e+123
-1.98023e+123
2.40563e+123
-2.9163e+123
3.52796e+123
-4.25887e+123
5.13026e+123
-6.16672e+123
7.39663e+123
-8.85264e+123
1.05723e+124
-1.25983e+124
1.49796e+124
-1.77714e+124
2.10363e+124
-2.48441e+124
2.92731e+124
-3.44097e+124
4.0349e+124
-4.71946e+124
5.50581e+124
-6.40584e+124
7.43206e+124
-8.59742e+124
9.91507e+124
-1.13981e+125
1.3059e+125
-1.49096e+125
1.69602e+125
-1.92189e+125
2.16914e+125
-2.43798e+125
2.72821e+125
-3.03913e+125
3.36944e+125
-3.71717e+125
4.07956e+125
-4.45299e+125
4.83285e+125
-5.21347e+125
5.58792e+125
-5.94792e+125
6.28361e+125
-6.58328e+125
6.83302e+125
-7.01622e+125
7.11286e+125
-7.09856e+125
6.94322e+125
-2.85859e+128
2.58671e+128
-2.3407e+128
2.11811e+128
-1.91671e+128
1.73451e+128
-1.56966e+128
1.42052e+128
-1.28559e+128
1.16352e+128
-1.05307e+128
9.53146e+127
-8.62732e+127
7.80923e+127
-7.06896e+127
6.39908e+127
-5.79284e+127
5.24417e+127
-4.74755e+127
4.29801e+127
-3.89105e+127
3.52259e+127
-3.18897e+127
2.88686e+127
-2.61325e+127
2.36544e+127
-2.14098e+127
1.93764e+127
-1.75343e+127
1.58653e+127
-1.43532e+127
1.29829e+127
-1.17413e+127
1.06162e+127
-9.59652e+126
8.67251e+126
-7.83514e+126
7.0763e+126
-6.38865e+126
5.76554e+126
-5.20091e+126
4.68928e+126
-4.22556e+126
3.8053e+126
-3.42449e+126
3.07953e+126
-2.76717e+126
2.48449e+126
-2.22881e+126
1.99772e+126
-1.78901e+126
1.60066e+126
-1.43084e+126
1.27784e+126
-1.1402e+126
1.01643e+126
-9.05198e+125
8.05309e+125
-7.15674e+125
6.35306e+125
-5.63311e+125
4.98878e+125
-4.41269e+125
3.89817e+125
-3.43913e+125
3.03007e+125
-2.66598e+125
2.34232e+125
-2.05499e+125
1.80025e+125
-1.57473e+125
1.37537e+125
-1.19939e+125
1.0443e+125
-9.07822e+124
7.87918e+124
-6.82743e+124
5.90636e+124
-5.10105e+124
4.39812e+124
-3.78561e+124
3.25278e+124
-2.79007e+124
2.38894e+124
-2.04178e+124
1.74185e+124
-1.48317e+124
1.26043e+124
-1.069e+124
9.04766e+123
-7.64172e+123
6.44089e+123
-5.41776e+123
4.54808e+123
-3.81042e+123
3.18595e+123
-2.65833e+123
2.21332e+123
-1.83868e+123
1.52387e+123
-1.25981e+123
1.03875e+123
-8.5402e+122
6.99912e+122
-5.71547e+122
4.6475e+122
-3.75955e+122
3.02108e+122
-2.40599e+122
1.89182e+122
-1.45921e+122
1.09133e+122
-7.73369e+121
4.92075e+121
-2.35354e+121
-8.15227e+119
2.49451e+121
-4.99593e+121
7.70064e+121
-1.0732e+122
1.42264e+122
-1.83379e+122
2.32435e+122
-2.91491e+122
3.62962e+122
-4.4969e+122
5.55031e+122
-6.8295e+122
8.38128e+122
-1.02608e+123
1.25332e+123
-1.52747e+123
1.85749e+123
-2.25385e+123
2.72876e+123
-3.29644e+123
3.97339e+123
-4.77873e+123
5.73455e+123
-6.86632e+123
8.20329e+123
-9.77903e+123
1.16319e+124
-1.38055e+124
1.63495e+124
-1.93199e+124
2.27796e+124
-2.67989e+124
3.14559e+124
-3.68368e+124
4.30355e+124
-5.01536e+124
5.82999e+124
-6.75889e+124
7.81397e+124
-9.00736e+124
1.03512e+125
-1.18571e+125
1.3536e+125
-1.53976e+125
1.74497e+125
-1.96978e+125
2.2144e+125
-2.47869e+125
2.76202e+125
-3.06325e+125
3.38057e+125
-3.71149e+125
4.0527e+125
-4.39999e+125
4.74815e+125
-5.09086e+125
5.4205e+125
-5.72806e+125
6.00282e+125
-6.23206e+125
6.40065e+125
-6.49034e+125
6.47897e+125
-6.33921e+125
2.56e+128
-2.31648e+128
2.09613e+128
-1.89672e+128
1.7163e+128
-1.55304e+128
1.40534e+128
-1.2717e+128
1.15079e+128
-1.0414e+128
9.42428e+127
-8.52886e+127
7.71874e+127
-6.98576e+127
6.32258e+127
-5.72253e+127
5.17957e+127
-4.68824e+127
4.2436e+127
-3.84119e+127
3.47697e+127
-3.14728e+127
2.84882e+127
-2.57861e+127
2.33394e+127
-2.11239e+127
1.91175e+127
-1.73004e+127
1.56544e+127
-1.41635e+127
1.28128e+127