/*--------------------------------*- C++ -*----------------------------------*\
  =========                 |
  \\      /  F ield         | OpenFOAM: The Open Source CFD Toolbox
   \\    /   O peration     | Website:  https://openfoam.org
    \\  /    A nd           | Version:  9
     \\/     M anipulation  |
\*---------------------------------------------------------------------------*/
FoamFile
{
    format      ascii;
    class       volVectorField;
    location    "100";
    object      U;
}
// * * * * * * * * * * * * * * * * * * * * * * * * * * * * * * * * * * * * * //

dimensions      [0 1 -1 0 0 0 0];

internalField   nonuniform List<vector> 
12225
(
(9.74829 0.0452109 0)
(9.25027 0.0805537 0)
(8.73909 0.0894101 0)
(8.22935 0.091119 0)
(7.74081 0.0894595 0)
(7.27906 0.0854893 0)
(6.84363 0.0802561 0)
(6.43462 0.0744304 0)
(6.05276 0.0683567 0)
(5.69815 0.0622883 0)
(5.37002 0.0564574 0)
(5.06688 0.0511022 0)
(4.78653 0.0464754 0)
(4.5258 0.0428471 0)
(4.28128 0.0406157 0)
(4.0456 0.0397823 0)
(3.82165 0.0427643 0)
(3.56474 0.0403276 0)
(10.1142 0.0690343 0)
(10.3377 0.112231 0)
(10.4901 0.120653 0)
(10.5783 0.126712 0)
(10.6202 0.132173 0)
(10.6242 0.135952 0)
(10.5956 0.138404 0)
(10.5401 0.139805 0)
(10.4634 0.140168 0)
(10.3707 0.139564 0)
(10.266 0.138178 0)
(10.1528 0.136311 0)
(10.0337 0.134373 0)
(9.91034 0.132872 0)
(9.78373 0.132566 0)
(9.65228 0.133987 0)
(9.51911 0.138996 0)
(9.36585 0.146742 0)
(10.0096 0.0412739 0)
(10.0575 0.0607467 0)
(10.1092 0.0635358 0)
(10.1612 0.0722616 0)
(10.2193 0.0830243 0)
(10.2825 0.0924798 0)
(10.3463 0.100584 0)
(10.4078 0.107561 0)
(10.4652 0.113336 0)
(10.517 0.117924 0)
(10.5624 0.121503 0)
(10.6005 0.124404 0)
(10.6314 0.127102 0)
(10.6549 0.1302 0)
(10.6714 0.134689 0)
(10.6809 0.141147 0)
(10.6852 0.152239 0)
(10.6802 0.166136 0)
(10.006 0.0309689 0)
(10.0328 0.0583783 0)
(10.057 0.0702307 0)
(10.0731 0.0814318 0)
(10.0879 0.0907808 0)
(10.1052 0.0970652 0)
(10.1248 0.101389 0)
(10.1461 0.104688 0)
(10.1691 0.107264 0)
(10.1936 0.1093 0)
(10.219 0.111038 0)
(10.2445 0.1128 0)
(10.2697 0.115003 0)
(10.2939 0.118168 0)
(10.3168 0.123084 0)
(10.3385 0.130482 0)
(10.3583 0.141869 0)
(10.3792 0.158708 0)
(10.0044 0.0255716 0)
(10.0264 0.054529 0)
(10.0488 0.0662403 0)
(10.0643 0.0744978 0)
(10.0769 0.0817402 0)
(10.09 0.0872798 0)
(10.1031 0.0915714 0)
(10.1156 0.0951752 0)
(10.1276 0.098214 0)
(10.1394 0.100745 0)
(10.1507 0.102944 0)
(10.1616 0.105111 0)
(10.1718 0.107653 0)
(10.1813 0.111095 0)
(10.1901 0.116126 0)
(10.1982 0.123645 0)
(10.206 0.13435 0)
(10.214 0.152007 0)
(10.0031 0.0211913 0)
(10.0204 0.0485282 0)
(10.0404 0.0607216 0)
(10.0559 0.0692924 0)
(10.0691 0.0774168 0)
(10.0827 0.0840666 0)
(10.0963 0.0891317 0)
(10.1095 0.0931219 0)
(10.122 0.0963154 0)
(10.134 0.0988841 0)
(10.1454 0.101078 0)
(10.156 0.103251 0)
(10.1657 0.10584 0)
(10.1747 0.109369 0)
(10.1829 0.114476 0)
(10.1906 0.122 0)
(10.1986 0.132477 0)
(10.2065 0.149166 0)
(10.0023 0.0176392 0)
(10.0158 0.0430543 0)
(10.0333 0.0561706 0)
(10.0482 0.0650928 0)
(10.0612 0.0729951 0)
(10.0742 0.0792667 0)
(10.0875 0.0838495 0)
(10.1006 0.0873483 0)
(10.1132 0.0901731 0)
(10.1254 0.0925371 0)
(10.1371 0.0946798 0)
(10.1484 0.0969225 0)
(10.1591 0.0996582 0)
(10.1693 0.103349 0)
(10.1792 0.108534 0)
(10.1892 0.115917 0)
(10.1999 0.12581 0)
(10.2117 0.140829 0)
(10.0017 0.0148254 0)
(10.0124 0.0381005 0)
(10.0275 0.0515229 0)
(10.0416 0.0604048 0)
(10.0541 0.0678738 0)
(10.0667 0.0739099 0)
(10.0796 0.0784627 0)
(10.0924 0.0820065 0)
(10.1048 0.0849174 0)
(10.1169 0.0873972 0)
(10.1287 0.0896598 0)
(10.1402 0.092 0)
(10.1514 0.0947756 0)
(10.1624 0.0983974 0)
(10.1735 0.10331 0)
(10.1851 0.110078 0)
(10.1979 0.118784 0)
(10.2125 0.131664 0)
(10.0013 0.0125665 0)
(10.0098 0.0335785 0)
(10.0228 0.0468275 0)
(10.036 0.0556458 0)
(10.0481 0.0628106 0)
(10.0602 0.0686559 0)
(10.0727 0.0731107 0)
(10.0851 0.0765175 0)
(10.0973 0.0792438 0)
(10.1094 0.0815291 0)
(10.1212 0.0835981 0)
(10.1329 0.0857289 0)
(10.1445 0.0882419 0)
(10.1562 0.0914837 0)
(10.1683 0.0957926 0)
(10.1813 0.101581 0)
(10.1958 0.108732 0)
(10.2123 0.119151 0)
(10.001 0.010716 0)
(10.0078 0.0294859 0)
(10.0191 0.0422047 0)
(10.0312 0.0508484 0)
(10.0428 0.05766 0)
(10.0545 0.0631779 0)
(10.0665 0.0673978 0)
(10.0787 0.0705902 0)
(10.0907 0.0731097 0)
(10.1027 0.0752096 0)
(10.1146 0.0771019 0)
(10.1265 0.0790222 0)
(10.1385 0.0812325 0)
(10.1509 0.0839984 0)
(10.1639 0.08755 0)
(10.1779 0.0921531 0)
(10.1936 0.0975374 0)
(10.2116 0.105315 0)
(10.0008 0.00916562 0)
(10.0063 0.0257983 0)
(10.016 0.0377119 0)
(10.0272 0.0460145 0)
(10.0383 0.0524096 0)
(10.0495 0.0575322 0)
(10.0611 0.0614627 0)
(10.0729 0.0644121 0)
(10.0848 0.0666868 0)
(10.0967 0.0685265 0)
(10.1086 0.0701208 0)
(10.1207 0.071665 0)
(10.1331 0.0733601 0)
(10.1459 0.0754025 0)
(10.1596 0.0779248 0)
(10.1745 0.0810738 0)
(10.191 0.0844758 0)
(10.2097 0.0895177 0)
(10.0006 0.00792447 0)
(10.0053 0.0226869 0)
(10.0138 0.0336845 0)
(10.0241 0.0415354 0)
(10.0346 0.0474962 0)
(10.0455 0.0522048 0)
(10.0567 0.0558021 0)
(10.0682 0.0584594 0)
(10.0799 0.0604338 0)
(10.0917 0.0619466 0)
(10.1036 0.063171 0)
(10.1158 0.0642595 0)
(10.1284 0.0653712 0)
(10.1416 0.0666253 0)
(10.1557 0.0680899 0)
(10.171 0.0698097 0)
(10.1878 0.071362 0)
(10.2068 0.0739672 0)
(10.0005 0.00685396 0)
(10.0046 0.019869 0)
(10.0121 0.0298216 0)
(10.0215 0.037086 0)
(10.0315 0.0425582 0)
(10.0419 0.0468062 0)
(10.0527 0.0500098 0)
(10.064 0.0523165 0)
(10.0754 0.0539386 0)
(10.0871 0.0550701 0)
(10.099 0.0558556 0)
(10.1113 0.0564152 0)
(10.124 0.0568547 0)
(10.1374 0.0572391 0)
(10.1516 0.0575701 0)
(10.1671 0.0578336 0)
(10.1838 0.0575741 0)
(10.2027 0.0578887 0)
(10.0004 0.00575919 0)
(10.0039 0.0168941 0)
(10.0104 0.0255577 0)
(10.019 0.0320111 0)
(10.0284 0.0368369 0)
(10.0383 0.0404943 0)
(10.0488 0.0431713 0)
(10.0596 0.0450008 0)
(10.0708 0.0461428 0)
(10.0823 0.0467556 0)
(10.0941 0.0469444 0)
(10.1063 0.0468032 0)
(10.119 0.0463726 0)
(10.1324 0.0456815 0)
(10.1466 0.0446651 0)
(10.1618 0.0432728 0)
(10.1782 0.0410534 0)
(10.1963 0.0389713 0)
(10.0004 0.004636 0)
(10.0033 0.0137736 0)
(10.009 0.0209177 0)
(10.0167 0.0263025 0)
(10.0255 0.0302811 0)
(10.0349 0.0331807 0)
(10.0448 0.0351736 0)
(10.0553 0.0363655 0)
(10.0661 0.0368747 0)
(10.0773 0.0368033 0)
(10.0888 0.0362353 0)
(10.1008 0.0352058 0)
(10.1133 0.0337355 0)
(10.1263 0.0317854 0)
(10.1401 0.0292853 0)
(10.1548 0.0261318 0)
(10.1701 0.0219491 0)
(10.187 0.0175341 0)
(10.0003 0.00347586 0)
(10.0028 0.0104898 0)
(10.0079 0.0158866 0)
(10.0148 0.0199283 0)
(10.0228 0.0228188 0)
(10.0316 0.0247595 0)
(10.041 0.0258785 0)
(10.051 0.0262489 0)
(10.0613 0.025943 0)
(10.0721 0.0250188 0)
(10.0832 0.0235194 0)
(10.0946 0.021449 0)
(10.1066 0.0187917 0)
(10.119 0.0154891 0)
(10.1318 0.0114529 0)
(10.1454 0.00659154 0)
(10.1592 0.000592371 0)
(10.1742 -0.0058569 0)
(10.0003 0.00226087 0)
(10.0025 0.00699566 0)
(10.0069 0.0104213 0)
(10.0131 0.0128531 0)
(10.0205 0.014403 0)
(10.0287 0.0151735 0)
(10.0375 0.0152265 0)
(10.0468 0.0146023 0)
(10.0565 0.0133232 0)
(10.0666 0.0114161 0)
(10.077 0.00887573 0)
(10.0876 0.00569696 0)
(10.0986 0.00182937 0)
(10.1099 -0.0027719 0)
(10.1214 -0.00819971 0)
(10.1332 -0.014507 0)
(10.145 -0.0219295 0)
(10.1576 -0.0298927 0)
(10.0002 0.000959587 0)
(10.0022 0.00320401 0)
(10.0063 0.00442439 0)
(10.0119 0.00498288 0)
(10.0187 0.00494199 0)
(10.0262 0.00432246 0)
(10.0343 0.00312694 0)
(10.0429 0.0013516 0)
(10.0518 -0.00101479 0)
(10.061 -0.00398394 0)
(10.0704 -0.00757811 0)
(10.0799 -0.0118244 0)
(10.0895 -0.0167628 0)
(10.0992 -0.0224358 0)
(10.1089 -0.0288952 0)
(10.1186 -0.0361751 0)
(10.1279 -0.044402 0)
(10.1378 -0.0531506 0)
(10.0002 -0.000489149 0)
(10.0021 -0.00104384 0)
(10.0059 -0.00227266 0)
(10.0112 -0.00379052 0)
(10.0175 -0.00558628 0)
(10.0244 -0.00771096 0)
(10.0318 -0.0102228 0)
(10.0395 -0.0131583 0)
(10.0475 -0.0165636 0)
(10.0556 -0.0204711 0)
(10.0637 -0.0249237 0)
(10.0717 -0.029949 0)
(10.0797 -0.0355835 0)
(10.0875 -0.0418486 0)
(10.0951 -0.0487706 0)
(10.1025 -0.0563533 0)
(10.1093 -0.0646474 0)
(10.1164 -0.0733607 0)
(10.0002 -0.00185488 0)
(10.0022 -0.00504843 0)
(10.0061 -0.00849251 0)
(10.0114 -0.0118073 0)
(10.0176 -0.0150537 0)
(10.0242 -0.0183803 0)
(10.0312 -0.0218836 0)
(10.0383 -0.0256434 0)
(10.0455 -0.0297121 0)
(10.0527 -0.0341569 0)
(10.0597 -0.039009 0)
(10.0665 -0.0443122 0)
(10.0731 -0.0500759 0)
(10.0794 -0.0563284 0)
(10.0853 -0.0630605 0)
(10.0908 -0.0702806 0)
(10.0958 -0.0779799 0)
(10.1008 -0.0859758 0)
(10.0003 -0.00304036 0)
(10.0025 -0.00848306 0)
(10.0068 -0.0136691 0)
(10.0125 -0.0182588 0)
(10.0188 -0.0224653 0)
(10.0254 -0.0265425 0)
(10.0321 -0.0306182 0)
(10.0389 -0.0347894 0)
(10.0456 -0.0391436 0)
(10.0522 -0.0437713 0)
(10.0586 -0.0487175 0)
(10.0646 -0.0540257 0)
(10.0703 -0.0597036 0)
(10.0757 -0.0657711 0)
(10.0805 -0.0722111 0)
(10.085 -0.0790215 0)
(10.0888 -0.0861762 0)
(10.0927 -0.0935513 0)
(10.0003 -0.0042719 0)
(10.0031 -0.0119445 0)
(10.0081 -0.0186377 0)
(10.0144 -0.0241608 0)
(10.021 -0.0290356 0)
(10.0277 -0.033633 0)
(10.0344 -0.0380826 0)
(10.041 -0.0424633 0)
(10.0474 -0.0468951 0)
(10.0536 -0.0514638 0)
(10.0593 -0.0562421 0)
(10.0647 -0.0612577 0)
(10.0697 -0.0665541 0)
(10.0743 -0.0721297 0)
(10.0783 -0.0780024 0)
(10.0819 -0.0841432 0)
(10.0849 -0.0905492 0)
(10.0878 -0.0971059 0)
(10.0004 -0.00566179 0)
(10.004 -0.0156542 0)
(10.0102 -0.0235966 0)
(10.0174 -0.0297057 0)
(10.0243 -0.0349577 0)
(10.0311 -0.0398273 0)
(10.0379 -0.0444374 0)
(10.0446 -0.0489286 0)
(10.0509 -0.053452 0)
(10.0568 -0.0580983 0)
(10.0623 -0.0629044 0)
(10.0674 -0.0678931 0)
(10.0719 -0.0730786 0)
(10.076 -0.0784688 0)
(10.0795 -0.0840541 0)
(10.0826 -0.0898238 0)
(10.085 -0.09575 0)
(10.0874 -0.101782 0)
(10.0006 -0.00735728 0)
(10.0055 -0.0197831 0)
(10.0134 -0.0285849 0)
(10.0215 -0.0350106 0)
(10.0289 -0.0405764 0)
(10.0359 -0.045574 0)
(10.0428 -0.0500026 0)
(10.0493 -0.0540906 0)
(10.0554 -0.0580961 0)
(10.061 -0.0621621 0)
(10.0662 -0.0663517 0)
(10.0708 -0.0707151 0)
(10.075 -0.0752735 0)
(10.0787 -0.0800471 0)
(10.0818 -0.0850189 0)
(10.0845 -0.0901887 0)
(10.0865 -0.0955101 0)
(10.0884 -0.100962 0)
(10.001 -0.00957179 0)
(10.008 -0.0245338 0)
(10.0178 -0.0334411 0)
(10.0269 -0.0396206 0)
(10.0347 -0.0454675 0)
(10.0421 -0.0510343 0)
(10.0494 -0.0560893 0)
(10.0562 -0.0607797 0)
(10.0623 -0.0652918 0)
(10.0679 -0.0697067 0)
(10.0729 -0.0740728 0)
(10.0773 -0.078441 0)
(10.0812 -0.0828534 0)
(10.0845 -0.087336 0)
(10.0872 -0.0919065 0)
(10.0894 -0.0965673 0)
(10.0909 -0.101301 0)
(10.0924 -0.106103 0)
(10.0016 -0.0124868 0)
(10.0118 -0.0301865 0)
(10.0242 -0.038984 0)
(10.0339 -0.044249 0)
(10.0414 -0.0487406 0)
(10.0486 -0.0526581 0)
(10.0557 -0.0561865 0)
(10.0622 -0.0596904 0)
(10.068 -0.0633346 0)
(10.0731 -0.0671274 0)
(10.0777 -0.0710584 0)
(10.0817 -0.07514 0)
(10.085 -0.0793594 0)
(10.0878 -0.0837115 0)
(10.0899 -0.0881899 0)
(10.0916 -0.0927696 0)
(10.0925 -0.0974381 0)
(10.0935 -0.10209 0)
(10.0026 -0.0162727 0)
(10.0166 -0.0348681 0)
(10.0318 -0.0445371 0)
(10.0423 -0.0529061 0)
(10.05 -0.0603119 0)
(10.0573 -0.0658824 0)
(10.0644 -0.0701083 0)
(10.071 -0.0736998 0)
(10.0772 -0.0769773 0)
(10.0832 -0.0800653 0)
(10.089 -0.0830775 0)
(10.0948 -0.086105 0)
(10.1005 -0.0892035 0)
(10.106 -0.0924106 0)
(10.1115 -0.095758 0)
(10.117 -0.0992593 0)
(10.1225 -0.10291 0)
(10.1281 -0.106597 0)
(10.0045 -0.0238823 0)
(10.027 -0.036295 0)
(10.0502 -0.0360545 0)
(10.0708 -0.0392625 0)
(10.0928 -0.0449206 0)
(10.1175 -0.0504825 0)
(10.1439 -0.0557505 0)
(10.1709 -0.0610074 0)
(10.1984 -0.0662554 0)
(10.2261 -0.0714312 0)
(10.2537 -0.076544 0)
(10.2808 -0.0816128 0)
(10.3072 -0.0866674 0)
(10.3327 -0.0917277 0)
(10.3572 -0.0968141 0)
(10.3804 -0.101991 0)
(10.4024 -0.107227 0)
(10.4234 -0.112842 0)
(10.0608 -0.0461886 0)
(10.1986 -0.0789638 0)
(10.3096 -0.0850013 0)
(10.394 -0.0885594 0)
(10.4609 -0.0923533 0)
(10.513 -0.0954901 0)
(10.5508 -0.0982485 0)
(10.5754 -0.100999 0)
(10.5884 -0.103798 0)
(10.5913 -0.106616 0)
(10.5852 -0.109441 0)
(10.571 -0.112273 0)
(10.5498 -0.115118 0)
(10.5222 -0.117982 0)
(10.489 -0.120864 0)
(10.4508 -0.123834 0)
(10.408 -0.126863 0)
(10.362 -0.130476 0)
(9.86233 -0.0316452 0)
(9.58937 -0.0605162 0)
(9.30112 -0.0705447 0)
(9.00633 -0.0752674 0)
(8.71879 -0.0776611 0)
(8.44227 -0.078279 0)
(8.17586 -0.0777953 0)
(7.91898 -0.0767291 0)
(7.67161 -0.0753419 0)
(7.43356 -0.0737765 0)
(7.20442 -0.0721257 0)
(6.98373 -0.0704546 0)
(6.77106 -0.0688161 0)
(6.56598 -0.0672434 0)
(6.36806 -0.0657578 0)
(6.17696 -0.0644107 0)
(5.99168 -0.0632187 0)
(5.81373 -0.0624655 0)
(-0.0168536 0.050832 -1.81587e-19)
(-0.0819357 0.0723639 9.66666e-20)
(-0.150425 0.0754415 0)
(-0.209118 0.0535598 0)
(-0.244356 0.0106566 0)
(-0.240521 -0.0387389 -4.93853e-20)
(-0.194744 -0.0811376 0)
(-0.121778 -0.113222 0)
(-0.010086 -0.134764 0)
(0.0962242 -0.138153 0)
(0.200118 -0.134523 6.02889e-20)
(0.325518 -0.133597 0)
(0.468623 -0.137366 0)
(0.625477 -0.14523 0)
(0.792131 -0.154354 0)
(0.96826 -0.16287 1.68216e-20)
(1.15329 -0.170042 0)
(1.34581 -0.175645 0)
(1.54423 -0.179644 0)
(1.747 -0.182055 0)
(1.95263 -0.182911 0)
(2.15961 -0.182224 0)
(2.3664 -0.179966 0)
(2.57132 -0.176046 9.37066e-21)
(2.77255 -0.170294 -9.12883e-21)
(2.96796 -0.162444 8.99291e-21)
(3.15512 -0.152074 8.96288e-21)
(3.33091 -0.138678 0)
(3.49202 -0.121219 0)
(3.63343 -0.0986053 -9.5058e-21)
(3.74851 -0.069665 -9.89892e-21)
(3.83448 -0.0281089 0)
(3.87212 0.032066 0)
(3.84645 0.106502 -1.15761e-20)
(3.7516 0.186675 0)
(3.58133 0.26447 0)
(3.33434 0.330739 1.45801e-20)
(3.01518 0.375471 0)
(2.63615 0.389551 1.88489e-20)
(2.21807 0.367973 4.52292e-20)
(1.78871 0.313046 0)
(1.38158 0.233931 0)
(1.02237 0.147879 0)
(0.718761 0.0749084 0)
(0.503142 0.0119519 0)
(0.347482 -0.0407302 3.1727e-19)
(0.215235 0.00301078 4.20346e-19)
(0.243791 0.192783 2.86856e-19)
(-0.200878 0.276717 0)
(-0.746813 0.263082 -9.17993e-20)
(-1.30994 0.185704 0)
(-1.80106 0.0651449 8.11613e-20)
(-2.08684 -0.0618353 8.75596e-20)
(-2.10804 -0.150176 0)
(-1.91121 -0.244579 0)
(-1.5628 -0.356287 0)
(-1.08187 -0.477952 1.07737e-19)
(-0.571589 -0.579391 0)
(-0.061641 -0.575224 0)
(0.549566 -0.36988 0)
(0.85036 -0.207687 0)
(1.02364 -0.101237 0)
(1.42241 -0.243707 0)
(1.65389 -0.48386 0)
(1.65423 -0.81962 0)
(1.29634 -0.742932 -4.74625e-20)
(0.826044 0.0668304 0)
(-0.876568 0.864959 0)
(-2.50774 1.11765 9.40613e-21)
(-4.06943 1.15221 1.61279e-20)
(-5.51609 1.07831 0)
(-6.80309 0.952032 -3.32946e-20)
(-7.91019 0.806829 4.08418e-20)
(-8.83685 0.662021 0)
(-9.59412 0.52759 -5.2433e-20)
(-10.1984 0.407616 0)
(-10.6674 0.302913 0)
(-11.0176 0.212798 6.23493e-20)
(-11.2634 0.136345 0)
(-11.4163 0.0732141 -6.5407e-20)
(-11.485 0.0237339 0)
(-11.4771 -0.0133297 6.59836e-20)
(-11.4155 -0.0436511 6.52257e-20)
(-11.2998 -0.0726675 6.38679e-20)
(-11.129 -0.102631 1.23759e-19)
(-10.8979 -0.135171 -1.18428e-19)
(-10.599 -0.171042 0)
(-10.2229 -0.210419 0)
(-9.7604 -0.25248 0)
(-9.20478 -0.295139 -7.9486e-20)
(-8.55542 -0.334955 -6.36656e-20)
(-7.82094 -0.367586 4.46331e-20)
(-7.02018 -0.388977 0)
(-6.1799 -0.396688 4.62883e-21)
(-5.32985 -0.390657 3.61049e-20)
(-4.49765 -0.37284 7.38307e-20)
(-3.70473 -0.346116 0)
(-2.96382 -0.313292 0)
(-2.27936 -0.277322 0)
(-1.65258 -0.242395 3.8888e-19)
(-1.09336 -0.216417 0)
(-0.623283 -0.204348 0)
(-0.21657 -0.211493 -1.60286e-18)
(0.241467 -0.207624 0)
(0.687574 -0.188652 0)
(1.07025 -0.166578 -5.50976e-19)
(1.41819 -0.146848 0)
(1.73722 -0.130311 0)
(2.03033 -0.11669 3.31905e-19)
(2.30038 -0.105419 2.95567e-19)
(2.5504 -0.0959477 0)
(2.78327 -0.087864 -2.43925e-19)
(3.00144 -0.0809159 0)
(3.20685 -0.0749099 2.08348e-19)
(3.40105 -0.069692 0)
(3.58534 -0.0651058 1.81926e-19)
(3.76077 -0.0610119 1.71025e-19)
(3.9281 -0.0572698 0)
(4.08783 -0.0537504 0)
(4.24016 -0.050308 0)
(4.38495 -0.0468238 0)
(4.52182 -0.0432304 0)
(4.65015 -0.0393419 0)
(4.76889 -0.0348104 0)
(4.87658 -0.0298122 1.14206e-19)
(4.97211 -0.0252196 -1.09673e-19)
(5.05567 -0.0200202 0)
(5.12469 -0.00994555 0)
(5.16644 0.00687966 0)
(5.17035 0.0268892 0)
(5.13705 0.0466003 -1.92601e-19)
(5.06722 0.0647719 0)
(4.96258 0.0806804 1.92148e-19)
(4.82535 0.0938732 -1.94506e-19)
(4.65818 0.104108 0)
(4.46419 0.111299 0)
(4.24689 0.115495 0)
(4.01019 0.116849 2.23916e-19)
(3.7583 0.115605 2.37238e-19)
(3.49561 0.112066 0)
(3.2266 0.106585 2.73086e-19)
(2.95567 0.0995383 2.96445e-19)
(2.68704 0.0913121 -3.2412e-19)
(2.4246 0.0822876 0)
(2.17184 0.0728261 0)
(1.93173 0.0632579 -4.39926e-19)
(1.7067 0.0538696 0)
(1.49864 0.0448944 0)
(1.30889 0.0365027 0)
(1.13833 0.0287972 0)
(0.987478 0.0218055 7.93123e-19)
(0.856552 0.0154837 8.9234e-19)
(0.745626 0.0097163 0)
(0.654697 0.00433994 1.10627e-18)
(0.583758 -0.000869204 0)
(0.532914 -0.00603924 0)
(0.500993 -0.0118892 1.36368e-18)
(0.492182 -0.0193533 0)
(0.511038 -0.0270149 1.34118e-18)
(0.548782 -0.0326794 0)
(0.599735 -0.0358004 0)
(0.659106 -0.0367186 1.15154e-18)
(0.722745 -0.0360216 0)
(0.787378 -0.034267 1.03758e-18)
(0.850675 -0.0319145 0)
(0.911127 -0.0292698 0)
(0.967829 -0.0265575 0)
(1.02052 -0.0239843 -8.8015e-19)
(1.0695 -0.0216971 0)
(1.11539 -0.0198312 8.23144e-19)
(1.15906 -0.0183906 0)
(1.20138 -0.0174194 0)
(1.24288 -0.0166151 0)
(1.28335 -0.0157549 0)
(1.32157 -0.0142675 0)
(1.35435 -0.0116978 0)
(1.37931 -0.00776923 0)
(1.38564 -0.00229345 -1.39998e-18)
(1.38028 0.00536725 0)
(1.29575 0.010916 0)
(-0.00208971 0.138498 4.07919e-19)
(-0.0551184 0.182191 -2.36388e-19)
(-0.0918522 0.171502 0)
(-0.106561 0.108059 1.41437e-19)
(-0.0823852 -0.00121842 0)
(-0.0165204 -0.118281 1.03707e-19)
(0.0405943 -0.200478 -1.90487e-19)
(0.10259 -0.257852 -1.34928e-19)
(0.173424 -0.305046 0)
(0.262782 -0.343711 -6.98499e-20)
(0.37254 -0.376996 -2.64803e-20)
(0.500057 -0.409604 0)
(0.640903 -0.441733 0)
(0.792169 -0.471995 0)
(0.952918 -0.498584 0)
(1.12243 -0.520695 -1.26831e-20)
(1.29972 -0.53829 0)
(1.48362 -0.551569 2.32149e-20)
(1.67293 -0.560712 0)
(1.86648 -0.565829 0)
(2.06316 -0.566969 -1.96368e-20)
(2.26196 -0.564094 0)
(2.46189 -0.557044 1.80365e-20)
(2.66195 -0.54552 -8.35252e-21)
(2.86108 -0.529065 8.20225e-21)
(3.05811 -0.507054 -8.13146e-21)
(3.25162 -0.478649 -8.14252e-21)
(3.44005 -0.442823 0)
(3.62105 -0.398128 0)
(3.79279 -0.34283 8.66334e-21)
(3.95327 -0.275031 -9.643e-21)
(4.09582 -0.190668 0)
(4.2289 -0.0845727 0)
(4.35362 0.0440157 9.87879e-21)
(4.45692 0.192287 0)
(4.52509 0.355975 0)
(4.54049 0.528093 -9.94718e-21)
(4.48464 0.696114 0)
(4.34101 0.841906 1.31174e-20)
(4.09853 0.944002 -2.19999e-20)
(3.75726 0.983929 0)
(3.33418 0.953763 0)
(2.85474 0.862098 -6.98139e-20)
(2.35346 0.731462 -8.48227e-20)
(1.88527 0.581243 -1.08293e-19)
(1.4294 0.431114 7.46415e-20)
(1.01049 0.411078 -9.17696e-20)
(0.75875 0.659297 -3.45856e-19)
(0.27248 0.922572 2.60877e-19)
(-0.281764 0.958792 1.1685e-19)
(-0.600371 0.845562 0)
(-0.640875 0.603703 -2.28556e-19)
(-0.231266 0.228212 4.51737e-19)
(-0.192756 -0.158202 0)
(-0.101531 -0.38424 0)
(0.279542 -0.806104 0)
(0.868676 -1.19772 -6.29307e-20)
(1.51187 -1.30407 0)
(1.93117 -1.11492 7.57145e-20)
(2.16729 -0.777355 0)
(2.34912 -0.514885 6.62575e-20)
(2.2887 -0.586369 0)
(2.12698 -0.805559 -6.85739e-20)
(0.989337 0.11969 0)
(-1.47926 1.49531 3.42954e-20)
(-3.43939 2.26272 -1.94934e-20)
(-5.24209 2.74396 0)
(-6.89482 2.88246 -2.28192e-20)
(-8.16275 2.74565 -3.37744e-21)
(-9.15139 2.46977 -7.60988e-21)
(-9.88851 2.13127 0)
(-10.4154 1.78147 -4.10538e-20)
(-10.7759 1.45165 -2.9797e-20)
(-11.0117 1.15766 0)
(-11.1589 0.904534 4.46546e-20)
(-11.2455 0.690568 -1.11388e-19)
(-11.2921 0.510643 0)
(-11.3129 0.358456 -6.04611e-20)
(-11.317 0.228056 0)
(-11.3099 0.114854 2.02983e-19)
(-11.2937 0.0159317 0)
(-11.2649 -0.0717356 -2.05099e-19)
(-11.1989 -0.153985 -6.62136e-20)
(-11.092 -0.237144 6.7815e-20)
(-10.9374 -0.325638 1.31236e-19)
(-10.7283 -0.423179 -1.25666e-19)
(-10.4555 -0.532246 0)
(-10.1075 -0.653602 0)
(-9.67195 -0.785037 0)
(-9.13829 -0.920174 2.38634e-19)
(-8.5019 -1.04798 5.96912e-20)
(-7.76886 -1.1542 -4.12142e-20)
(-6.95822 -1.22532 0)
(-6.09977 -1.25325 -6.41584e-21)
(-5.22777 -1.23817 -3.17758e-20)
(-4.37364 -1.18727 -6.42964e-20)
(-3.56075 -1.11094 0)
(-2.8023 -1.01908 0)
(-2.10292 -0.920297 0)
(-1.46428 -0.822916 -3.19889e-19)
(-0.887545 -0.736569 0)
(-0.380014 -0.677296 1.50225e-18)
(0.108918 -0.641641 2.33097e-18)
(0.583272 -0.594944 -1.12307e-18)
(0.994043 -0.54325 0)
(1.36697 -0.490529 -3.79331e-19)
(1.7128 -0.443 0)
(2.03371 -0.402173 -5.92092e-19)
(2.33144 -0.367513 2.65108e-19)
(2.60822 -0.337909 2.41718e-19)
(2.86665 -0.312342 0)
(3.10924 -0.290081 6.21513e-19)
(3.33817 -0.270647 -3.84989e-19)
(3.55521 -0.253633 -1.80701e-19)
(3.76183 -0.238665 0)
(3.95922 -0.225354 -1.59552e-19)
(4.14836 -0.213329 -4.50837e-19)
(4.32994 -0.202217 0)
(4.5044 -0.191662 -2.69519e-19)
(4.67186 -0.181306 -2.56129e-19)
(4.83222 -0.170817 -2.43841e-19)
(4.98505 -0.159896 0)
(5.12961 -0.148252 0)
(5.26508 -0.135586 0)
(5.39082 -0.1218 1.01728e-19)
(5.50542 -0.107104 9.82235e-20)
(5.6055 -0.0909038 0)
(5.69056 -0.0709403 1.82678e-19)
(5.77081 -0.0460192 1.76353e-19)
(5.85394 -0.0179077 0)
(5.93549 0.0114765 1.64284e-19)
(6.0105 0.0414366 3.14913e-19)
(6.07375 0.0714738 -1.53309e-19)
(6.1202 0.101048 -1.47374e-19)
(6.14539 0.129539 0)
(6.14569 0.15625 0)
(6.11841 0.180474 0)
(6.06202 0.201545 -1.43561e-19)
(5.97614 0.218898 1.42718e-19)
(5.86156 0.23211 2.91844e-19)
(5.7202 0.24093 -1.50054e-19)
(5.55492 0.245283 1.52507e-19)
(5.36941 0.245272 1.59317e-19)
(5.16797 0.241155 0)
(4.95528 0.233321 0)
(4.73617 0.222252 -1.79426e-19)
(4.51546 0.208491 0)
(4.2977 0.192595 0)
(4.08709 0.175109 4.18174e-19)
(3.88733 0.156535 0)
(3.70152 0.137313 2.32127e-19)
(3.53214 0.117811 -2.43873e-19)
(3.381 0.0983357 0)
(3.24916 0.0791365 2.69128e-19)
(3.13699 0.0604207 0)
(3.04398 0.0423722 0)
(2.96933 0.0249988 -3.03383e-19)
(2.90973 0.00835774 6.28885e-19)
(2.85964 -0.00656226 -3.22624e-19)
(2.81684 -0.0184528 0)
(2.78023 -0.0269014 0)
(2.74881 -0.0321698 3.47758e-19)
(2.72146 -0.0348276 0)
(2.69718 -0.0355107 3.6115e-19)
(2.67511 -0.0348204 0)
(2.65466 -0.033272 0)
(2.6355 -0.0313184 0)
(2.61757 -0.0293279 3.83051e-19)
(2.60104 -0.027608 0)
(2.58609 -0.0263157 -3.90126e-19)
(2.57278 -0.0254354 0)
(2.56094 -0.0248824 0)
(2.54986 -0.0241757 7.95408e-19)
(2.53829 -0.0229263 -8.02313e-19)
(2.52461 -0.0203851 0)
(2.50616 -0.0158479 0)
(2.4815 -0.00851959 0)
(2.44478 0.00268373 2.52391e-18)
(2.39797 0.0219041 0)
(2.29557 0.0441606 -1.76179e-18)
(0.018 0.165034 7.85123e-23)
(0.00551426 0.229858 3.68496e-19)
(0.00326262 0.185298 0)
(0.0289809 0.0680432 -5.72513e-19)
(0.0773481 -0.0846175 0)
(0.114674 -0.207484 0)
(0.149475 -0.304592 -1.25936e-22)
(0.197144 -0.384872 7.56435e-20)
(0.261192 -0.457628 6.13019e-20)
(0.340281 -0.526238 4.91173e-20)
(0.433083 -0.590678 0)
(0.53847 -0.650409 0)
(0.6554 -0.704883 -3.36884e-20)
(0.782605 -0.753422 -6.13413e-20)
(0.918693 -0.79562 5.67008e-20)
(1.06226 -0.831223 0)
(1.21187 -0.86013 4.99707e-20)
(1.36611 -0.882454 -2.18499e-20)
(1.52375 -0.898458 0)
(1.68382 -0.9085 4.2786e-20)
(1.84579 -0.912945 1.91683e-20)
(2.00954 -0.912034 -3.89636e-20)
(2.1753 -0.905804 -1.7917e-20)
(2.34358 -0.894077 0)
(2.51511 -0.876428 3.51612e-20)
(2.69068 -0.852128 3.45882e-20)
(2.87094 -0.820056 0)
(3.05614 -0.778577 3.46449e-20)
(3.24599 -0.725649 0)
(3.4393 -0.658691 3.63778e-20)
(3.63406 -0.574728 1.8515e-20)
(3.82696 -0.47265 0)
(4.01263 -0.351896 0)
(4.18764 -0.206623 0)
(4.34933 -0.0278616 0)
(4.48895 0.185637 0)
(4.60019 0.429433 0)
(4.67382 0.695867 4.79176e-20)
(4.69743 0.969286 -6.87979e-20)
(4.65337 1.22439 0)
(4.52057 1.42838 0)
(4.2833 1.5497 0)
(3.93809 1.57018 -7.01311e-21)
(3.50112 1.49613 5.15631e-20)
(3.01284 1.35148 1.25669e-19)
(2.49561 1.1605 -1.49702e-19)
(1.98975 1.0226 -9.12865e-20)
(1.66869 1.12685 9.1217e-20)
(1.45095 1.34447 8.38109e-21)
(1.21665 1.35308 1.3548e-19)
(1.0734 1.07007 0)
(1.14545 0.563231 2.55799e-19)
(1.20675 0.083969 -1.3617e-20)
(1.19089 -0.202729 0)
(1.49198 -0.746205 0)
(2.06797 -1.52917 -9.25294e-20)
(2.56543 -1.96368 0)
(2.84992 -1.87489 0)
(2.91486 -1.37782 8.88682e-20)
(2.6069 -0.917162 1.71268e-19)
(2.26918 -0.731421 -8.51997e-20)
(0.664134 0.665253 0)
(-1.94259 2.34139 2.69517e-20)
(-4.12683 3.47629 0)
(-6.02637 4.15055 3.75473e-20)
(-7.36297 4.3457 1.66302e-20)
(-8.31191 4.27377 -7.33099e-20)
(-8.91328 3.99171 -6.83102e-20)
(-9.25305 3.54226 0)
(-9.43816 3.01973 1.26467e-19)
(-9.54531 2.4939 0)
(-9.62772 2.01049 2.43985e-19)
(-9.71458 1.5919 2.0305e-19)
(-9.81586 1.24309 2.26766e-19)
(-9.92917 0.958446 -2.47908e-19)
(-10.0462 0.727522 3.89307e-19)
(-10.1575 0.538693 0)
(-10.2543 0.380995 0)
(-10.33 0.244748 -3.03128e-19)
(-10.3794 0.121526 -4.59499e-19)
(-10.3993 0.00403832 0)
(-10.3892 -0.113219 1.4922e-19)
(-10.3495 -0.232943 0)
(-10.2787 -0.358628 -4.34822e-19)
(-10.1727 -0.495683 1.07868e-20)
(-10.025 -0.649764 -1.1856e-20)
(-9.82533 -0.825955 2.51193e-19)
(-9.5597 -1.02691 0)
(-9.21041 -1.25037 -2.07686e-19)
(-8.75883 -1.48635 1.88483e-20)
(-8.1912 -1.71541 0)
(-7.50635 -1.91064 0)
(-6.72125 -2.04498 0)
(-5.86966 -2.10132 2.18672e-21)
(-4.99337 -2.07895 0)
(-4.13095 -1.99164 0)
(-3.31018 -1.86014 0)
(-2.54612 -1.70512 0)
(-1.84391 -1.54394 0)
(-1.20406 -1.39089 -5.30861e-19)
(-0.629065 -1.25749 0)
(-0.104165 -1.15108 -1.00674e-18)
(0.38891 -1.05443 -9.14129e-19)
(0.832688 -0.96407 7.70462e-19)
(1.22875 -0.87851 0)
(1.59099 -0.798359 6.02927e-19)
(1.92591 -0.726371 0)
(2.23657 -0.663344 4.99896e-19)
(2.52537 -0.608653 -4.60744e-19)
(2.7947 -0.561175 -1.27357e-18)
(3.04693 -0.519822 0)
(3.28434 -0.483743 -1.11211e-18)
(3.50892 -0.452245 -3.44784e-19)
(3.72241 -0.424696 0)
(3.9262 -0.400468 -6.18857e-19)
(4.12149 -0.378933 -5.86062e-19)
(4.30918 -0.359472 8.35669e-19)
(4.48993 -0.341476 0)
(4.66414 -0.324349 2.52832e-19)
(4.8319 -0.307516 2.41025e-19)
(4.99303 -0.290425 6.88494e-19)
(5.14705 -0.272551 0)
(5.29324 -0.253481 0)
(5.43067 -0.232961 0)
(5.55825 -0.210644 1.92943e-19)
(5.67481 -0.185949 0)
(5.77928 -0.158896 0)
(5.87061 -0.130724 -1.75327e-19)
(5.9477 -0.102271 -1.70377e-19)
(6.01021 -0.0729047 0)
(6.0595 -0.04186 0)
(6.09747 -0.00892522 -3.12865e-19)
(6.12582 0.0257494 0)
(6.14614 0.0617982 2.95547e-19)
(6.15965 0.0986693 2.86696e-19)
(6.16696 0.135642 0)
(6.16795 0.171863 0)
(6.16173 0.206372 -2.7378e-19)
(6.14685 0.238175 -2.47724e-21)
(6.1215 0.266299 -2.45597e-21)
(6.0839 0.289873 0)
(6.03255 0.308185 -5.50286e-19)
(5.96653 0.320745 0)
(5.88562 0.32731 0)
(5.79042 0.327892 0)
(5.68228 0.322743 2.94655e-19)
(5.5632 0.31232 0)
(5.43564 0.297232 -6.19534e-19)
(5.30235 0.278197 -3.19624e-19)
(5.16617 0.25598 0)
(5.02977 0.231359 -3.41109e-19)
(4.89557 0.205087 0)
(4.76555 0.177885 0)
(4.64118 0.150415 -1.1416e-18)
(4.52337 0.123294 7.90985e-19)
(4.41248 0.0970541 0)
(4.30828 0.0721728 8.52476e-19)
(4.20996 0.0493526 -4.40396e-19)
(4.11663 0.0297104 0)
(4.02796 0.0141679 0)
(3.94396 0.00288892 0)
(3.86466 -0.00457338 -1.52045e-18)
(3.78991 -0.00894609 0)
(3.7194 -0.0110065 -5.35985e-19)
(3.6527 -0.0114606 0)
(3.58941 -0.01093 0)
(3.52916 -0.00997827 0)
(3.47166 -0.00900778 0)
(3.41676 -0.00835896 0)
(3.36421 -0.00811411 0)
(3.3137 -0.00820421 -1.24394e-18)
(3.26465 -0.00830344 0)
(3.21602 -0.00776802 -6.43389e-19)
(3.1662 -0.00587727 1.96555e-18)
(3.11304 -0.00171462 0)
(3.05323 0.00570144 0)
(2.98437 0.0173889 -1.38541e-18)
(2.90059 0.0350983 -1.41426e-18)
(2.80347 0.0652347 1.44011e-18)
(2.66966 0.103523 1.47736e-18)
(0.0151907 0.115662 -8.84303e-19)
(0.0287081 0.220306 -4.93978e-19)
(0.0383759 0.17193 -3.58868e-19)
(0.0686566 0.0219963 -2.63963e-19)
(0.0854094 -0.145782 0)
(0.106309 -0.276173 2.33716e-19)
(0.134383 -0.382801 -8.76816e-20)
(0.169994 -0.48307 0)
(0.215178 -0.580554 -5.71731e-20)
(0.270684 -0.673599 0)
(0.336326 -0.760702 8.6502e-20)
(0.411485 -0.840969 0)
(0.494903 -0.913277 3.38212e-20)
(0.584739 -0.976536 6.24501e-20)
(0.678882 -1.03008 -5.85143e-20)
(0.775141 -1.07327 0)
(0.871225 -1.10595 -5.30437e-20)
(0.965102 -1.1286 0)
(1.05535 -1.14229 0)
(1.14153 -1.14856 -4.76771e-20)
(1.2244 -1.14904 0)
(1.30575 -1.14517 -4.53593e-22)
(1.3883 -1.13817 0)
(1.47546 -1.12893 0)
(1.57103 -1.11782 -3.17416e-22)
(1.67883 -1.10431 -4.18022e-20)
(1.8023 -1.08683 -4.13797e-20)
(1.94424 -1.06266 -4.20134e-20)
(2.10684 -1.02816 0)
(2.29174 -0.978969 -8.70829e-20)
(2.49963 -0.910298 0)
(2.73053 -0.816431 -4.66869e-20)
(2.98241 -0.692236 0)
(3.24932 -0.533994 0)
(3.52999 -0.33278 5.40411e-20)
(3.82174 -0.0791627 0)
(4.09388 0.219746 -5.55184e-20)
(4.32417 0.548061 5.19871e-21)
(4.49545 0.894517 1.0324e-19)
(4.5986 1.24489 -1.08486e-19)
(4.62611 1.57621 0)
(4.56618 1.85414 0)
(4.4043 2.03918 -6.05282e-20)
(4.13421 2.10715 0)
(3.7736 2.05816 -4.83456e-20)
(3.34959 1.90162 5.33223e-20)
(2.89612 1.69069 6.02804e-20)
(2.53521 1.55688 0)
(2.35087 1.51178 -7.2846e-20)
(2.27171 1.36428 -8.60884e-20)
(2.26907 0.992444 2.04263e-19)
(2.34268 0.479157 -1.36965e-19)
(2.3485 0.0233507 -1.37345e-19)
(2.4185 -0.494122 0)
(2.82224 -1.38731 0)
(3.26812 -2.19757 6.74443e-20)
(3.47719 -2.38629 0)
(3.13958 -1.84605 0)
(2.5819 -1.19865 -2.15418e-19)
(1.0742 0.51252 -1.79107e-19)
(-1.56778 2.63307 0)
(-3.86015 4.15098 0)
(-5.7379 5.06098 0)
(-6.97439 5.41149 0)
(-7.77322 5.41293 -4.10884e-20)
(-8.19133 5.13484 9.45498e-20)
(-8.35684 4.70009 7.25051e-20)
(-8.3735 4.1704 2.27258e-19)
(-8.32896 3.6013 0)
(-8.29079 3.04939 4.65771e-20)
(-8.2919 2.54807 0)
(-8.33736 2.10953 -1.99137e-19)
(-8.41629 1.73214 3.42352e-20)
(-8.51298 1.4081 -2.55451e-19)
(-8.61345 1.12836 2.80178e-19)
(-8.70774 0.884753 2.22992e-20)
(-8.78976 0.670501 0)
(-8.85625 0.480063 3.54316e-19)
(-8.90571 0.308734 3.50193e-19)
(-8.93761 0.152009 7.34078e-19)
(-8.95235 0.00486529 0)
(-8.95128 -0.138255 -3.69741e-19)
(-8.93553 -0.28288 0)
(-8.90493 -0.435634 6.83342e-19)
(-8.85793 -0.604461 -3.19566e-19)
(-8.79015 -0.798567 3.0021e-19)
(-8.69266 -1.02739 -2.77227e-19)
(-8.54986 -1.29817 -5.39591e-19)
(-8.3382 -1.61182 2.20164e-19)
(-8.02785 -1.95745 -1.86113e-19)
(-7.58989 -2.30758 0)
(-7.00892 -2.61892 2.69065e-19)