/*--------------------------------*- C++ -*----------------------------------*\
  =========                 |
  \\      /  F ield         | OpenFOAM: The Open Source CFD Toolbox
   \\    /   O peration     | Website:  https://openfoam.org
    \\  /    A nd           | Version:  9
     \\/     M anipulation  |
\*---------------------------------------------------------------------------*/
FoamFile
{
    format      ascii;
    class       volScalarField;
    location    "200";
    object      p;
}
// * * * * * * * * * * * * * * * * * * * * * * * * * * * * * * * * * * * * * //

dimensions      [0 2 -2 0 0 0 0];

internalField   nonuniform List<scalar> 
12225
(
-5.32753
-6.21895
-6.6035
-6.7605
-6.96448
-7.22413
-7.5046
-7.80662
-8.14347
-8.52447
-8.95412
-9.43626
-9.97436
-10.5722
-11.2364
-11.9774
-12.813
-13.776
-5.65606
-6.30371
-6.63492
-6.78749
-6.9828
-7.23431
-7.50937
-7.80668
-8.13833
-8.5132
-8.93566
-9.40946
-9.93815
-10.5254
-11.1773
-11.9009
-12.7082
-13.5611
-5.82164
-6.26116
-6.59458
-6.78442
-6.98997
-7.24273
-7.51849
-7.81411
-8.14026
-8.50536
-8.91319
-9.36664
-9.86851
-10.4218
-11.0307
-11.6984
-12.4249
-13.164
-5.95571
-6.28638
-6.61878
-6.82432
-7.02164
-7.26142
-7.52779
-7.8146
-8.1302
-8.48221
-8.87371
-9.30656
-9.78256
-10.3034
-10.8711
-11.4848
-12.1427
-12.8151
-6.07827
-6.33083
-6.63194
-6.83768
-7.02905
-7.2607
-7.52189
-7.80356
-8.11143
-8.45225
-8.8286
-9.24147
-9.69175
-10.1798
-10.7059
-11.2668
-11.8607
-12.4655
-6.18739
-6.37909
-6.6444
-6.852
-7.04399
-7.26909
-7.52287
-7.79617
-8.09275
-8.41852
-8.77569
-9.16451
-9.58488
-10.036
-10.5165
-11.0216
-11.5489
-12.08
-6.28382
-6.43077
-6.66232
-6.86716
-7.05696
-7.27218
-7.51498
-7.77745
-8.06111
-8.37042
-8.70692
-9.07
-9.45849
-9.87038
-10.3028
-10.75
-11.2082
-11.6608
-6.36886
-6.48327
-6.68325
-6.87984
-7.06549
-7.27104
-7.50261
-7.75362
-8.02339
-8.31477
-8.62859
-8.96354
-9.31748
-9.68732
-10.069
-10.4557
-10.8424
-11.2135
-6.44341
-6.534
-6.70566
-6.89058
-7.07059
-7.26634
-7.48538
-7.72274
-7.97631
-8.24742
-8.53619
-8.84066
-9.15779
-9.48349
-9.81266
-10.1377
-10.4522
-10.7412
-6.50801
-6.58099
-6.72808
-6.89917
-7.07145
-7.25653
-7.46174
-7.68367
-7.91937
-8.16867
-8.43083
-8.70325
-8.98209
-9.26242
-9.53828
-9.8016
-10.0448
-10.254
-6.56296
-6.62276
-6.74884
-6.90491
-7.06742
-7.24092
-7.43135
-7.63642
-7.85267
-8.0786
-8.3126
-8.5515
-8.79083
-9.02506
-9.24767
-9.45049
-9.62514
-9.7593
-6.60458
-6.65518
-6.76486
-6.90674
-7.05867
-7.22065
-7.39671
-7.58511
-7.78218
-7.98547
-8.19263
-8.40006
-8.60291
-8.79524
-8.97038
-9.12026
-9.23626
-9.3079
-6.63834
-6.68162
-6.77713
-6.90503
-7.04543
-7.19517
-7.35639
-7.52745
-7.70462
-7.88475
-8.06483
-8.24096
-8.40789
-8.55979
-8.68972
-8.79033
-8.85282
-8.86916
-6.66682
-6.70329
-6.78498
-6.89752
-7.02381
-7.15869
-7.30232
-7.45287
-7.60658
-7.75975
-7.90888
-8.04969
-8.17703
-8.28502
-8.3673
-8.41706
-8.42639
-8.38957
-6.68561
-6.71584
-6.78428
-6.88045
-6.9902
-7.10739
-7.23062
-7.35751
-7.48436
-7.60711
-7.72202
-7.8246
-7.91008
-7.97291
-8.0076
-8.00846
-7.96862
-7.88555
-6.68898
-6.71348
-6.76937
-6.8487
-6.93993
-7.037
-7.13725
-7.23797
-7.3353
-7.42543
-7.50423
-7.5679
-7.61166
-7.63147
-7.62221
-7.58045
-7.49997
-7.38195
-6.66969
-6.68899
-6.73325
-6.79595
-6.86776
-6.94313
-7.01896
-7.09221
-7.15928
-7.21645
-7.26022
-7.28702
-7.2934
-7.27595
-7.23144
-7.15752
-7.05007
-6.91215
-6.61912
-6.63386
-6.66796
-6.71542
-6.76859
-6.82265
-6.87465
-6.9216
-6.96033
-6.98764
-7.00077
-6.99695
-6.9739
-6.92932
-6.86143
-6.76927
-6.65004
-6.50856
-6.52749
-6.53872
-6.56518
-6.60065
-6.63835
-6.67428
-6.70612
-6.73136
-6.7475
-6.7521
-6.74336
-6.71953
-6.67948
-6.62203
-6.54655
-6.45319
-6.34006
-6.21292
-6.41475
-6.42562
-6.45083
-6.48259
-6.51371
-6.54075
-6.56258
-6.57713
-6.58265
-6.57697
-6.55934
-6.52842
-6.48409
-6.4255
-6.35295
-6.26679
-6.16576
-6.05565
-6.31182
-6.32446
-6.35305
-6.38701
-6.41732
-6.44157
-6.45957
-6.47039
-6.47192
-6.46316
-6.44322
-6.41205
-6.36906
-6.31466
-6.24849
-6.17209
-6.08349
-5.98944
-6.2101
-6.22692
-6.26356
-6.30398
-6.33662
-6.36094
-6.37882
-6.38916
-6.39
-6.38044
-6.36046
-6.33017
-6.28956
-6.23896
-6.1785
-6.10949
-6.03021
-5.94688
-6.10913
-6.13347
-6.18364
-6.23373
-6.2696
-6.29516
-6.31481
-6.32713
-6.32983
-6.32241
-6.30531
-6.27863
-6.24268
-6.19757
-6.14395
-6.08276
-6.01295
-5.94044
-6.00739
-6.04434
-6.11438
-6.17605
-6.21527
-6.24288
-6.26462
-6.2779
-6.28071
-6.27367
-6.25767
-6.23302
-6.19983
-6.15863
-6.10965
-6.05422
-5.99067
-5.92484
-5.90272
-5.96073
-6.05722
-6.12825
-6.16912
-6.20165
-6.22993
-6.24807
-6.25428
-6.25028
-6.23736
-6.21587
-6.18604
-6.1485
-6.10369
-6.05294
-5.99472
-5.93541
-5.79221
-5.88474
-6.01665
-6.09238
-6.12776
-6.15926
-6.18877
-6.20783
-6.21524
-6.21335
-6.2033
-6.18513
-6.15898
-6.12549
-6.08511
-6.03904
-5.98565
-5.93061
-5.67356
-5.81506
-5.9873
-6.07317
-6.1143
-6.15234
-6.18488
-6.20405
-6.21107
-6.20914
-6.19933
-6.18182
-6.15665
-6.12467
-6.08635
-6.04288
-5.99271
-5.94221
-5.54884
-5.76616
-5.94527
-6.01431
-6.05829
-6.10738
-6.14768
-6.17204
-6.18386
-6.18652
-6.18091
-6.16707
-6.14529
-6.11645
-6.08108
-6.04043
-5.99303
-5.94648
-5.3985
-5.80693
-6.00226
-6.03506
-6.06443
-6.10983
-6.14599
-6.16633
-6.17585
-6.17774
-6.17238
-6.15961
-6.13967
-6.1133
-6.08087
-6.04332
-5.9993
-5.95429
-5.07952
-5.70362
-5.96073
-5.99947
-6.03717
-6.0919
-6.13396
-6.15801
-6.17049
-6.17493
-6.1717
-6.16075
-6.14249
-6.11764
-6.08651
-6.04998
-6.00658
-5.96047
-10.2625
-10.3345
-10.4595
-10.6183
-10.9885
-11.7558
-12.4142
-12.0897
-10.5724
-8.54716
-6.72838
-5.37911
-4.85973
-5.37255
-6.7481
-8.70619
-10.9578
-13.2328
-15.2935
-16.9511
-18.0652
-18.6417
-18.8104
-18.6791
-18.3395
-17.9084
-17.509
-17.2401
-17.1458
-17.2078
-17.3583
-17.5193
-17.6545
-17.7838
-18.0198
-18.6075
-19.6506
-20.861
-21.6203
-21.4114
-20.0616
-17.9633
-16.1039
-14.9154
-14.237
-13.8945
-13.6936
-13.4874
-13.3812
-13.2875
-12.9028
-12.186
-11.7385
-12.4241
-14.6068
-18.0705
-22.401
-27.1476
-31.9125
-36.3951
-40.3993
-43.815
-46.5773
-48.6282
-49.9037
-50.3599
-50.0192
-48.9614
-47.2683
-45.011
-42.2583
-39.0816
-35.5562
-31.7624
-27.7847
-23.7105
-19.627
-15.6174
-11.7566
-8.107
-4.71641
-1.61762
1.17048
3.64044
5.79477
7.64453
9.20894
10.514
11.59
12.468
13.1763
13.7379
14.1715
14.4933
14.7205
14.8722
14.9683
15.0268
15.0562
15.0574
15.032
14.9844
14.9197
14.8425
14.7566
14.6649
14.57
14.4737
14.3779
14.2837
14.1923
14.1045
14.021
13.9424
13.8691
13.8016
13.7401
13.6851
13.6368
13.595
13.5584
13.5258
13.4967
13.4707
13.4472
13.4257
13.4055
13.3862
13.3675
13.3493
13.3317
13.3149
13.2994
13.286
13.2752
13.2663
13.2585
13.2592
13.2976
13.375
13.427
13.4352
13.5816
13.911
13.9988
13.2998
11.3254
6.18746
-2.46711
-11.1768
-17.4069
-20.6969
-21.476
-20.2169
-17.2549
-12.9059
-7.5496
-1.6351
4.35824
9.97323
14.8356
18.7228
21.5718
23.4701
24.5309
24.781
24.2612
23.0867
21.4503
19.543
17.541
15.5963
13.8317
12.3287
11.1093
10.1629
9.48851
9.01543
8.7966
8.46248
-10.665
-10.8902
-11.3273
-11.9404
-12.6609
-13.1912
-13.3757
-13.0236
-11.9123
-10.4015
-9.07171
-8.42931
-8.55046
-9.41153
-10.9152
-12.8492
-14.9742
-17.0816
-19.0049
-20.6221
-21.8622
-22.6362
-22.8483
-22.509
-21.734
-20.7066
-19.643
-18.7427
-18.1281
-17.8131
-17.7154
-17.723
-17.8055
-18.0649
-18.6294
-19.4989
-20.566
-21.5092
-21.9606
-21.8074
-20.9533
-19.2501
-17.294
-15.8601
-15.0021
-14.4751
-14.1289
-13.6162
-13.1898
-13.3364
-13.6895
-13.3496
-13.3259
-14.887
-18.0182
-22.2552
-27.0636
-31.9862
-36.6826
-40.9181
-44.5366
-47.4403
-49.5835
-50.9736
-51.6595
-51.7021
-51.1283
-49.9409
-48.1622
-45.8389
-43.0291
-39.7989
-36.2205
-32.3722
-28.3376
-24.2046
-20.0613
-15.9926
-12.0747
-8.37157
-4.93283
-1.79302
1.0275
3.52112
5.69197
7.55452
9.13183
10.4524
11.5462
12.4406
13.1589
13.7205
14.1444
14.452
14.6682
14.8195
14.9242
14.9899
15.0217
15.0241
15.0005
14.9554
14.8935
14.8189
14.7354
14.6458
14.5527
14.4582
14.3637
14.2708
14.1805
14.0937
14.011
13.933
13.8602
13.7929
13.7313
13.6756
13.6256
13.5808
13.5412
13.5069
13.4773
13.4518
13.4295
13.4098
13.3918
13.3748
13.3582
13.3418
13.3257
13.3101
13.2955
13.283
13.2728
13.2643
13.257
13.2609
13.3036
13.386
13.4158
13.3923
13.5274
13.8259
13.7484
12.801
10.0777
3.34697
-6.08056
-14.2064
-19.4312
-21.9112
-22.2467
-20.7857
-17.6675
-13.1429
-7.6335
-1.6458
4.31077
9.79515
14.5019
18.285
21.1407
23.0957
24.1826
24.4383
23.9289
22.7809
21.1755
19.2965
17.3153
15.3783
13.5981
12.0561
10.8075
9.86403
9.2163
8.78178
8.60776
8.26597
-10.9312
-11.103
-11.4119
-11.7928
-12.2062
-12.5875
-12.7032
-12.6518
-12.5619
-12.4565
-12.569
-13.127
-14.1649
-15.6229
-17.3982
-19.3532
-21.3423
-23.2342
-24.919
-26.3112
-27.3501
-28.0006
-28.2517
-28.1085
-27.5851
-26.7098
-25.5387
-24.1714
-22.7476
-21.4259
-20.3435
-19.5825
-19.1794
-19.1412
-19.4358
-20.0038
-20.7366
-21.4097
-21.8264
-21.7778
-21.0892
-19.8186
-18.4908
-17.4986
-16.6721
-15.5109
-14.6196
-14.5001
-14.8623
-15.8845
-17.5854
-19.2676
-21.1707
-23.6778
-26.7748
-30.2816
-33.9944
-37.7369
-41.3629
-44.7429
-47.7504
-50.2605
-52.1671
-53.4064
-53.9675
-53.8743
-53.1523
-51.8247
-49.9225
-47.4891
-44.5775
-41.2487
-37.5704
-33.6175
-29.472
-25.222
-20.9584
-16.7696
-12.7362
-8.92644
-5.39346
-2.17441
0.709424
3.25186
5.46051
7.35444
8.96036
10.3078
11.4243
12.3335
13.0557
13.6118
14.0271
14.3321
14.5573
14.7217
14.8354
14.9072
14.9442
14.9515
14.9331
14.8934
14.8366
14.767
14.6879
14.6024
14.513
14.4218
14.3304
14.2402
14.1524
14.0677
13.987
13.9107
13.8394
13.7734
13.7128
13.6579
13.6085
13.5645
13.5253
13.4905
13.4595
13.4318
13.4069
13.3843
13.3637
13.3447
13.3272
13.3111
13.2964
13.2831
13.2716
13.2626
13.2566
13.2534
13.2557
13.2744
13.3252
13.3968
13.4158
13.4184
13.5574
13.6868
13.1145
11.3091
6.4396
-1.9062
-10.5872
-17.2652
-21.4048
-23.2828
-23.3418
-21.7312
-18.4522
-13.7459
-8.09676
-2.06999
3.81968
9.18357
13.805
17.5797
20.4553
22.4295
23.5356
23.817
23.3443
22.2442
20.6889
18.8569
16.9154
15.0094
13.2531
11.7245
10.4653
9.48099
8.772
8.28576
8.05838
7.77544
-10.6752
-10.6353
-10.5281
-10.5054
-10.7518
-11.3308
-12.1526
-13.1768
-14.3594
-15.6522
-17.0743
-18.6619
-20.4093
-22.2767
-24.2076
-26.133
-27.9759
-29.6611
-31.122
-32.3053
-33.1722
-33.7011
-33.884
-33.7189
-33.212
-32.3749
-31.2191
-29.7632
-28.0527
-26.1849
-24.3167
-22.6346
-21.3033
-20.4032
-19.9152
-19.7596
-19.8175
-19.9716
-20.0999
-20.0437
-19.7633
-19.4153
-19.194
-18.5427
-17.8222
-17.3983
-17.2437
-17.9368
-19.3873
-21.4211
-23.8659
-26.3557
-28.8549
-31.495
-34.3477
-37.4025
-40.5874
-43.7942
-46.901
-49.7865
-52.3341
-54.4346
-55.9951
-56.9533
-57.2865
-56.9971
-56.0943
-54.5973
-52.5372
-49.9557
-46.9029
-43.4352
-39.6147
-35.5108
-31.2021
-26.7767
-22.3297
-17.9567
-13.7466
-9.77557
-6.10235
-2.76649
0.211822
2.83027
5.10145
7.04829
8.6985
10.0796
11.2164
12.1317
12.8502
13.4018
13.8223
14.1446
14.389
14.5689
14.6961
14.7795
14.8264
14.8423
14.832
14.8002
14.751
14.6884
14.616
14.5367
14.4529
14.3668
14.28
14.194
14.11
14.0287
13.951
13.8774
13.8083
13.7442
13.6851
13.6313
13.5825
13.5387
13.4994
13.4643
13.4331
13.4054
13.3805
13.358
13.3373
13.3181
13.3
13.283
13.2674
13.2536
13.2423
13.2343
13.231
13.2334
13.2461
13.2756
13.3341
13.412
13.4824
13.5708
13.7232
13.6682
12.542
9.34767
2.24141
-6.48816
-14.2582
-19.9426
-23.3093
-24.6425
-24.4199
-22.6837
-19.2921
-14.4799
-8.78956
-2.81196
2.97649
8.2584
12.8441
16.6141
19.5047
21.5052
22.6401
22.9549
22.5273
21.4837
19.9886
18.2143
16.3237
14.4584
12.7298
11.2177
9.96774
8.98517
8.26409
7.75693
7.4759
7.22044
-10.4993
-10.4428
-10.303
-10.2822
-10.741
-11.8759
-13.5278
-15.4703
-17.5584
-19.7113
-21.8882
-24.072
-26.2465
-28.3852
-30.4503
-32.3966
-34.1748
-35.7376
-37.0423
-38.0553
-38.751
-39.1195
-39.1673
-38.896
-38.3045
-37.3954
-36.1705
-34.6255
-32.754
-30.5698
-28.1425
-25.6224
-23.2236
-21.1508
-19.5226
-18.3332
-17.5104
-17.028
-16.7994
-16.7594
-17.0996
-17.693
-18.2814
-18.9735
-19.5077
-20.3082
-21.5401
-23.3214
-25.5127
-27.9326
-30.4783
-33.0624
-35.698
-38.4375
-41.3043
-44.2757
-47.2867
-50.245
-53.0485
-55.5976
-57.7992
-59.5667
-60.8219
-61.5069
-61.5955
-61.0827
-59.9712
-58.2773
-56.0298
-53.269
-50.0427
-46.4031
-42.4046
-38.1079
-33.5854
-28.9246
-24.227
-19.6003
-15.1472
-10.9553
-7.09069
-3.59466
-0.484877
2.24113
4.60025
6.6173
8.31934
9.73294
10.8847
11.8043
12.5275
13.0956
13.5433
13.8931
14.1612
14.3619
14.5069
14.6057
14.666
14.694
14.695
14.6738
14.6346
14.5815
14.5179
14.4466
14.3703
14.291
14.2104
14.1301
14.0511
13.9745
13.9009
13.831
13.7652
13.7039
13.6472
13.5952
13.548
13.5054
13.467
13.4325
13.4015
13.3737
13.3485
13.3256
13.3045
13.285
13.2669
13.25
13.2346
13.221
13.21
13.2025
13.2003
13.2057
13.2242
13.2613
13.3302
13.4295
13.5612
13.7328
13.9087
13.7828
12.2694
7.37047
-1.19921
-10.0057
-17.2958
-22.3347
-24.9356
-25.6193
-25.1405
-23.3897
-20.0223
-15.2399
-9.61046
-3.7228
1.97814
7.19507
11.7361
15.4808
18.3694
20.3863
21.5491
21.9024
21.5262
20.5449
19.1157
17.4053
15.5723
13.7555
12.0653
10.5813
9.34899
8.37479
7.65437
7.14812
6.84817
6.59638
-10.5784
-10.5723
-10.5623
-10.9308
-12.1246
-14.0107
-16.2792
-18.7477
-21.3221
-23.9389
-26.5488
-29.111
-31.5841
-33.9267
-36.0986
-38.0645
-39.7928
-41.256
-42.4303
-43.2977
-43.8448
-44.0726
-43.9908
-43.597
-42.8853
-41.8545
-40.5038
-38.8246
-36.7929
-34.3752
-31.5594
-28.4096
-25.1022
-21.8973
-19.0442
-16.6841
-14.8667
-13.6118
-13.0013
-13.1814
-13.995
-15.5463
-17.5624
-19.5759
-21.7293
-24.044
-26.4884
-29.0517
-31.694
-34.3797
-37.1025
-39.866
-42.6857
-45.5686
-48.4993
-51.4373
-54.3215
-57.0776
-59.6271
-61.895
-63.8109
-65.3052
-66.3084
-66.7607
-66.6303
-65.9083
-64.5972
-62.7119
-60.2797
-57.3392
-53.9363
-50.1183
-45.9303
-41.4201
-36.6488
-31.7017
-26.6896
-21.7381
-16.9703
-12.4907
-8.37506
-4.66738
-1.38335
1.48289
3.95085
6.04676
7.79989
9.24228
10.411
11.3486
12.1021
12.7092
13.1943
13.5769
13.8739
14.1
14.2673
14.3856
14.4633
14.5071
14.5225
14.5148
14.4882
14.4469
14.3941
14.333
14.266
14.1952
14.1225
14.0493
13.9767
13.9059
13.8376
13.7724
13.7107
13.653
13.5994
13.55
13.5049
13.4639
13.4268
13.3932
13.3628
13.3354
13.3105
13.2877
13.2667
13.2472
13.2291
13.2123
13.1969
13.1834
13.1725
13.1652
13.1634
13.1703
13.1897
13.2291
13.3001
13.4097
13.5679
13.7792
13.9581
13.804
11.998
5.80499
-3.52319
-12.2817
-19.1283
-23.4394
-25.3645
-25.748
-25.2853
-23.7129
-20.5347
-15.9092
-10.4134
-4.63833
0.963553
6.08646
10.5474
14.2403
17.1078
19.1283
20.3118
20.7002
20.3732
19.452
18.088
16.4421
14.6687
12.9035
11.2553
9.80373
8.59522
7.63795
6.92915
6.43572
6.13858
5.89396
-10.6782
-10.7147
-11.0847
-12.3519
-14.3244
-16.6819
-19.2884
-22.0689
-24.9622
-27.9053
-30.822
-33.6361
-36.2847
-38.7223
-40.918
-42.8514
-44.5064
-45.8697
-46.9291
-47.6764
-48.1062
-48.2277
-48.0484
-47.558
-46.7445
-45.6032
-44.1334
-42.3298
-40.1715
-37.6122
-34.5934
-31.1025
-27.2481
-23.2903
-19.5581
-16.325
-13.7615
-11.967
-11.0609
-11.2848
-12.8862
-15.472
-18.6783
-21.9905
-25.2791
-28.4689
-31.5591
-34.5859
-37.5809
-40.564
-43.5491
-46.542
-49.5405
-52.531
-55.4866
-58.3678
-61.125
-63.7019
-66.0404
-68.0836
-69.7737
-71.0482
-71.8405
-72.0936
-71.7802
-70.8929
-69.4342
-67.4168
-64.8636
-61.808
-58.2911
-54.354
-50.03
-45.3471
-40.3455
-35.1002
-29.7314
-24.3909
-19.2341
-14.3926
-9.95906
-5.98469
-2.486
0.545076
3.1321
5.30793
7.11221
8.59158
9.79831
10.7851
11.5927
12.2489
12.777
13.1976
13.5284
13.7844
13.9781
14.12
14.2188
14.2816
14.3146
14.3231
14.3117
14.2843
14.2446
14.1955
14.1396
14.079
14.0156
13.9509
13.8862
13.8224
13.7604
13.7009
13.6443
13.591
13.5413
13.4953
13.453
13.4144
13.3791
13.347
13.3179
13.2913
13.267
13.2446
13.2238
13.2045
13.1864
13.1695
13.154
13.1403
13.129
13.1213
13.1189
13.1247
13.1415
13.1769
13.2404
13.3369
13.4802
13.6736
13.8144
13.6168
11.6814
4.97925
-4.54169
-13.1205
-19.5817
-23.5095
-25.2995
-25.7433
-25.358
-23.9105
-20.8975
-16.4147
-11.0491
-5.4144
0.0365124
5.01576
9.35709
12.9652
15.7844
17.7878
18.9778
19.3915
19.106
18.2385
16.9345
15.35
13.6351
11.9226
10.3194
8.90489
7.72601
6.7925
6.1037
5.63213
5.35446
5.13806
-10.5519
-10.7047
-12.0372
-14.1598
-16.5199
-19.1231
-21.9776
-25.0228
-28.1813
-31.3579
-34.4522
-37.3812
-40.0873
-42.5357
-44.7065
-46.5881
-48.1711
-49.4479
-50.4136
-51.0686
-51.4154
-51.4689
-51.2316
-50.6841
-49.808
-48.5965
-47.0495
-45.1674
-42.9399
-40.3291
-37.266
-33.6998
-29.691
-25.4722
-21.3942
-17.8123
-14.9611
-13.0593
-12.3152
-13.0125
-15.2682
-18.5775
-22.3461
-26.113
-29.7568
-33.2495
-36.6177
-39.9039
-43.1402
-46.3416
-49.51
-52.6377
-55.7115
-58.7135
-61.6202
-64.4015
-67.0195
-69.4313
-71.5914
-73.4531
-74.9627
-76.0554
-76.6637
-76.7399
-76.2742
-75.264
-73.7124
-71.6327
-69.046
-65.9809
-62.4739
-58.5609
-54.2595
-49.5618
-44.4587
-38.9897
-33.2769
-27.5111
-21.9022
-16.6298
-11.8181
-7.53349
-3.795
-0.589103
2.11943
4.37988
6.25101
7.79709
9.07751
10.1363
11.0068
11.7177
12.2942
12.7578
13.1267
13.4167
13.6408
13.8099
13.9333
14.0185
14.0721
14.0995
14.1056
14.0946
14.0699
14.0347
13.9917
13.9429
13.8904
13.8356
13.7799
13.7244
13.6698
13.6169
13.5663
13.5183
13.4733
13.4313
13.3925
13.3567
13.3239
13.2938
13.2663
13.241
13.2176
13.1959
13.1756
13.1566
13.1386
13.1216
13.1058
13.0914
13.0792
13.0701
13.0657
13.0679
13.0795
13.1063
13.1548
13.2237
13.3255
13.4539
13.5052
13.2377
11.286
4.68817
-4.58697
-12.9566
-19.2236
-23.0746
-24.9301
-25.5032
-25.1961
-23.8024
-20.8877
-16.5579
-11.3853
-5.96337
-0.727146
4.05434
8.23071
11.716
14.4554
16.4158
17.592
18.0148
17.757
16.9312
15.6778
14.1476
12.4868
10.8247
9.26661
7.89129
6.74624
5.84289
5.18275
4.7434
4.50101
4.33656
-10.9012
-11.5667
-13.6402
-16.0023
-18.4778
-21.2285
-24.2548
-27.4736
-30.777
-34.0526
-37.2005
-40.1454
-42.838
-45.2515
-47.3721
-49.1916
-50.7022
-51.899
-52.7854
-53.3737
-53.6763
-53.7102
-53.4677
-52.9162
-52.03
-50.8027
-49.2373
-47.3411
-45.1169
-42.5449
-39.5684
-36.1286
-32.262
-28.1842
-24.2676
-20.867
-18.1893
-16.5863
-16.3639
-17.6096
-20.2144
-23.5739
-27.222
-30.8898
-34.494
-38.0145
-41.4609
-44.8482
-48.1829
-51.4603
-54.6689
-57.7952
-60.8263
-63.7509
-66.5548
-69.2166
-71.7054
-73.9837
-76.0119
-77.7483
-79.1411
-80.1217
-80.6164
-80.5757
-79.992
-78.865
-77.2058
-75.0397
-72.3984
-69.3227
-65.8685
-62.0918
-58.0044
-53.538
-48.578
-43.0692
-37.1084
-30.9382
-24.8556
-19.1188
-13.9026
-9.29492
-5.31405
-1.93258
0.90675
3.27566
5.25147
6.9011
8.27407
9.41163
10.3502
11.1208
11.7501
12.2607
12.6717
12.9993
13.2573
13.4571
13.6083
13.7189
13.7958
13.8448
13.8708
13.8781
13.8705
13.8511
13.8226
13.7872
13.747
13.7035
13.658
13.6118
13.5657
13.5205
13.4767
13.4348
13.3952
13.3579
13.3232
13.291
13.2612
13.2336
13.2082
13.1846
13.1625
13.1419
13.1223
13.1037
13.0858
13.0686
13.0523
13.037
13.0232
13.0117
13.0036
13.0004
13.0038
13.0173
13.0446
13.0784
13.1237
13.163
13.0965
12.7189
10.7667
4.62324
-4.09409
-12.1743
-18.3248
-22.2233
-24.2136
-24.9041
-24.6409
-23.2551
-20.4232
-16.2823
-11.3658
-6.22704
-1.27063
3.25763
7.22244
10.545
13.1698
15.0577
16.195
16.6057
16.3574
15.5577
14.3418
12.8559
11.2421
9.62643
8.11186
6.77642
5.66808
4.79982
4.1756
3.77808
3.58441
3.49021
-12.4888
-13.6581
-15.5563
-17.6744
-20.0947
-22.8698
-25.9419
-29.2089
-32.55
-35.8476
-39
-41.9316
-44.594
-46.9624
-49.0251
-50.7749
-52.207
-53.3251
-54.1445
-54.6843
-54.96
-54.9931
-54.7744
-54.2542
-53.3963
-52.1978
-50.6691
-48.8264
-46.6849
-44.2374
-41.4338
-38.2229
-34.667
-31.0042
-27.5525
-24.5964
-22.474
-21.4187
-21.6869
-23.254
-25.7678
-28.8163
-32.1229
-35.5266
-38.9574
-42.3812
-45.7796
-49.1377
-52.4389
-55.6653
-58.801
-61.8357
-64.7651
-67.589
-70.3046
-72.8996
-75.3472
-77.6085
-79.6367
-81.3807
-82.7805
-83.7614
-84.2411
-84.1572
-83.489
-82.2326
-80.4082
-78.0555
-75.2255
-71.9884
-68.4491
-64.7288
-60.8801
-56.7893
-52.1959
-46.8752
-40.8404
-34.3741
-27.8814
-21.7228
-16.1359
-11.2318
-7.02148
-3.45713
-0.459525
2.05811
4.16849
5.93155
7.40013
8.62008
9.63035
10.4642
11.1497
11.7106
12.1668
12.5354
12.8305
13.0639
13.2458
13.3846
13.4873
13.5602
13.6083
13.636
13.6473
13.6454
13.633
13.6125
13.5859
13.5549
13.521
13.4852
13.4485
13.4118
13.3758
13.3408
13.3072
13.2754
13.2454
13.2173
13.191
13.1665
13.1436
13.1221
13.1017
13.0824
13.0638
13.0457
13.028
13.0106
12.9935
12.9769
12.9609
12.9461
12.9331
12.9228
12.915
12.9122
12.9145
12.91
12.8961
12.8479
12.6757
12.2093
10.3136
4.81993
-3.12164
-10.7773
-16.7831
-20.748
-22.9026
-23.7264
-23.5204
-22.1639
-19.4504
-15.555
-10.9645
-6.17834
-1.56236
2.66164
6.37135
9.49267
11.9681
13.7519
14.8221
15.1958
14.9348
14.142
12.9478
11.4937
9.91765
8.34212
6.86768
5.5712
4.50103
3.67177
3.0898
2.74311
2.61004
2.60013
-14.0777
-15.2786
-16.7295
-18.5955
-20.9035
-23.6235
-26.6694
-29.9319
-33.2824
-36.5952
-39.7626
-42.7057
-45.3745
-47.742
-49.7932
-51.5194
-52.9198
-54.0065
-54.7987
-55.3107
-55.5535
-55.5646
-55.3401
-54.8229
-53.9778
-52.8099
-51.3333
-49.566
-47.525
-45.2126
-42.604
-39.6871
-36.5525
-33.415
-30.5453
-28.2485
-26.7394
-26.2059
-26.8243
-28.4081
-30.6815
-33.3967
-36.3808
-39.5224
-42.7538
-46.026
-49.3004
-52.5442
-55.7296
-58.8359
-61.8515
-64.7751
-67.6154
-70.3861
-73.0974
-75.7438
-78.293
-80.6844
-82.8395
-84.6816
-86.1472
-87.1754
-87.6924
-87.6259
-86.9359
-85.5904
-83.5971
-81.005
-77.8921
-74.3666
-70.5862
-66.743
-62.9578
-59.1307
-54.914
-49.9147
-44.0041
-37.4434
-30.7148
-24.2718
-18.409
-13.2601
-8.83384
-5.06834
-1.88589
0.789503
3.03113
4.90535
6.46947
7.77247
8.85592
9.75488
10.4988
11.1124
11.6165
12.0285
12.3632
12.633
12.8481
13.0174
13.1483
13.2472
13.3194
13.3695
13.4014
13.4186
13.4238
13.4196
13.4079
13.3906
13.3692
13.3448
13.3186
13.2913
13.2637
13.2364
13.2097
13.1839
13.1592
13.1358
13.1136
13.0926
13.0727
13.0536
13.0353
13.0176
13.0002
12.9828
12.9654
12.9477
12.9297
12.9114
12.8928
12.874
12.8551
12.836
12.8157
12.7948
12.7707
12.7285
12.661
12.5405
12.2925
11.8003
10.0838
5.38015
-1.62517
-8.71595
-14.5177
-18.5397
-20.8709
-21.8626
-21.7607
-20.4956
-17.9694
-14.3892
-10.1927
-5.81977
-1.59497
2.28258
5.7005
8.58661
10.8801
12.5285
13.5023
13.8117
13.5136
12.7064
11.5158
10.079
8.52964
6.98663
5.54759
4.28793
3.25618
2.46854
1.93377
1.64551
1.5833
1.66915
-14.4321
-15.3327
-16.5433
-18.276
-20.4976
-23.1702
-26.201
-29.4747
-32.8552
-36.2097
-39.4243
-42.4145
-45.1269
-47.5334
-49.6212
-51.3865
-52.8343
-53.9753
-54.8132
-55.3388
-55.5521
-55.5191
-55.2426
-54.6781
-53.8035
-52.6235
-51.151
-49.4049
-47.4094
-45.1847
-42.7485
-40.1486
-37.4929
-34.9488
-32.7378
-31.0526
-30.0628
-29.9623
-30.7648
-32.3041
-34.3959
-36.8799
-39.6359
-42.5751
-45.6297
-48.7434
-51.8686
-54.9673
-58.0113
-60.985
-63.8859
-66.7246
-69.5224
-72.3045
-75.087
-77.8589
-80.5672
-83.1169
-85.3965
-87.3171
-88.8282
-89.8902
-90.4372
-90.3961
-89.7156
-88.3334
-86.2376
-83.4815
-80.163
-76.4114
-72.4055
-68.3706
-64.4794
-60.6856
-56.6619
-51.9571
-46.3132
-39.8883
-33.1535
-26.6074
-20.5853
-15.2405
-10.6095
-6.65658
-3.31244
-0.497985
1.86358
3.84173
5.49692
6.88071
8.0365
9.00077
9.80401
10.4717
11.0253
11.4828
11.8592
12.1673
12.4177
12.6197
12.7808
12.9076
13.0057
13.0798
13.134
13.1717
13.1959
13.2092
13.2137
13.2112
13.2033
13.1914
13.1764
13.1594
13.1411
13.122
13.1028
13.0836
13.0649
13.0467
13.029
13.012
12.9955
12.9793
12.9634
12.9475
12.9315
12.9151
12.898
12.8801
12.8611
12.8409
12.8192
12.7959
12.7703
12.7416
12.708
12.6681
12.6169
12.5382
12.4213
12.2386
11.9277
11.4351
9.99117
6.16307
0.217906
-6.15915
-11.6552
-15.6767
-18.1609
-19.3348
-19.3849
-18.2866
-16.0292
-12.8365
-9.09397
-5.18177
-1.38477
2.11691
5.21663
7.84126
9.92533
11.4098
12.2584
12.4759
12.1149
11.2702
10.0638
8.62832
7.0933
5.57386
4.16426
2.93804
1.94381
1.19919
0.715303
0.491628
0.50902
0.700322
-13.0726
-13.7651
-14.9269
-16.6358
-18.8455
-21.5188
-24.566
-27.8713
-31.2985
-34.711
-37.9885
-41.0382
-43.7997
-46.2425
-48.3591
-50.1568
-51.6526
-52.8645
-53.7956
-54.4186
-54.6887
-54.6004
-54.1825
-53.458
-52.4435
-51.1558
-49.6142
-47.8462
-45.8902
-43.793
-41.6075
-39.3929
-37.2307
-35.2427
-33.572
-32.3843
-31.8717
-32.1306
-33.1108
-34.684
-36.7188
-39.1009
-41.7373
-44.551
-47.4768
-50.4581
-53.4485
-56.413
-59.3299
-62.1916
-65.0055
-67.7925
-70.5833
-73.4081
-76.281
-79.1799
-82.0301
-84.7083
-87.0768
-89.026
-90.4913
-91.4409
-91.8629
-91.7696
-91.1116
-89.767
-87.686
-84.9138
-81.5601
-77.7644
-73.6972
-69.57
-65.568
-61.7064
-57.74
-53.2487
-47.9086
-41.7513
-35.1586
-28.6186
-22.5092
-17.0343
-12.2616
-8.17132
-4.7009
-1.77297
0.690238
2.75986
4.49798
5.95735
7.18248
8.21054
9.07267
9.7948
10.3987
10.9028
11.3223
11.6703
11.9578
12.1941
12.3871
12.5435
12.669
12.7686
12.8464
12.9061
12.9506
12.9825
13.0042
13.0176
13.0242
13.0255
13.0226
13.0165
13.0081
12.9981
12.9869
12.975
12.9627
12.9502
12.9376
12.925
12.9122
12.8994
12.8862
12.8725
12.8581
12.8427
12.8261
12.8079
12.7879
12.7656
12.7407
12.7125
12.6799
12.6414
12.5939
12.5345
12.4564
12.3431
12.1801
11.9415
11.5705
11.0544
9.88205
6.92201
2.11224
-3.39242
-8.42886
-12.3348
-14.9081
-16.2549
-16.4998
-15.6447
-13.7344
-10.9904
-7.74475
-4.32104
-0.96955
2.14325
4.91199
7.25951
9.11435
10.4111
11.1082
11.2067
10.7569
9.85109
8.60815
7.15707
5.62304
4.1172
2.73013
1.53309
0.574529
-0.126717
-0.55718
-0.711484
-0.607182
-0.302156
-10.249
-10.9494
-12.1574
-13.9183
-16.1765
-18.8888
-21.9683
-25.3036
-28.7635
-32.2135
-35.5299
-38.6116
-41.3882
-43.8221
-45.905
-47.6477
-49.0701
-50.193
-51.0269
-51.5586
-51.7539
-51.5932
-51.0895
-50.2693
-49.1685
-47.8261
-46.2827
-44.5836
-42.7786
-40.9156
-39.0362
-37.1863
-35.4321
-33.8744
-32.6653
-31.9886
-31.9679
-32.6125
-33.848
-35.5685
-37.6724
-40.0705
-42.6858
-45.4508
-48.306
-51.2005
-54.0935
-56.9572
-59.7783
-62.5574
-65.3102
-68.0656
-70.8591
-73.7196
-76.6523
-79.6197
-82.5266
-85.2324
-87.5863
-89.4682
-90.8223
-91.6522
-91.9943
-91.9376
-91.3767
-90.1422
-88.1588
-85.4682
-82.1841
-78.4498
-74.4233
-70.2958
-66.2602
-62.3816
-58.4747
-54.1509
-49.0552
-43.1352
-36.7026
-30.2291
-24.1131
-18.5886
-13.7442
-9.57328
-6.02038
-3.01117
-0.469284
1.67576
3.48575
5.01342
6.30313
7.39217
8.31164
9.08761
9.74196
10.2931
10.7567
11.1458
11.4716
11.7435
11.9698
12.1571
12.3115
12.4379
12.5406
12.6233
12.6891
12.7408
12.7806
12.8107
12.8326
12.8479
12.8578
12.8634
12.8656
12.8651
12.8625
12.8583
12.8529
12.8466
12.8395
12.8317
12.8232
12.8139
12.8038
12.7926
12.78
12.7659
12.7499
12.7315
12.7105
12.6861
12.6578
12.6246
12.5848
12.5364
12.4754
12.3971
12.2941
12.1496
11.9467
11.6612
11.2417
10.6784
9.69863
7.48669
3.78913
-0.72557
-5.13695
-8.78225
-11.3544
-12.8454
-13.3098
-12.7526
-11.2421
-8.9806
-6.2459
-3.31163
-0.39998
2.33056
4.77156
6.83883
8.45363
9.5447
10.0671
10.0207
9.45604
8.46496
7.16439
5.6799
4.13263
2.62941
1.25701
0.0839028
-0.841862
-1.5004
-1.87605
-1.95736
-1.76012
-1.33431
-6.82412
-7.60172
-8.91224
-10.7696
-13.106
-15.8634
-18.9537
-22.2703
-25.6924
-29.0956
-32.362
-35.3901
-38.1037
-40.4576
-42.4366
-44.0454
-45.296
-46.2021
-46.7773
-47.0325
-46.9716
-46.6022
-45.9483
-45.038
-43.9084
-42.5996
-41.1517
-39.604
-37.9928
-36.3531
-34.7241
-33.1619
-31.7579
-30.6524
-30.0085
-29.9441
-30.4877
-31.5929
-33.1757
-35.1459
-37.421
-39.9281
-42.6022
-45.3849
-48.2246
-51.0774
-53.9105
-56.7077
-59.4675
-62.1987
-64.9208
-67.6622
-70.4534
-73.3167
-76.251
-79.2142
-82.1136
-84.8134
-87.1668
-89.0583
-90.432
-91.2893
-91.6672
-91.6157
-91.0531
-89.8336
-87.8915
-85.2683
-82.0741
-78.4462
-74.5316
-70.5058
-66.5535
-62.7461
-58.9172
-54.7041
-49.7634
-44.0222
-37.7538
-31.4033
-25.3633
-19.8743
-15.0337
-10.8435
-7.25509
-4.19937
-1.60401
0.598663
2.46815
4.05563
5.40435
6.55076
7.52546
8.35419
9.05863
9.65716
10.1653
10.5964
10.9615
11.2703
11.531
11.7505
11.9349
12.0892
12.2179
12.3247
12.4128
12.4851
12.544
12.5916
12.6295
12.6595
12.6828
12.7007
12.7139
12.7235
12.73
12.7341
12.7361
12.7363
12.7352
12.7326
12.7287
12.7234
12.7166
12.7081
12.6978
12.6851
12.6698
12.6514
12.6294
12.603
12.5714
12.5331
12.4864
12.4282
12.3544
12.2592
12.134
11.9629
11.7271
11.4036
10.9507
10.3441
9.45706
7.78726
5.04447
1.53083
-2.13339
-5.37415
-7.83743
-9.41865
-10.0941
-9.84688
-8.74281
-6.95263
-4.70368
-2.2275
0.275162
2.64938
4.78041
6.57478
7.94577
8.81742
9.14407
8.92815
8.22334
7.12331
5.74422
4.20874
2.63397
1.12218
-0.243844
-1.39878
-2.29525
-2.91249
-3.23283
-3.23857
-2.94355
-2.39106
-3.83478
-4.65457
-6.07623
-8.03619
-10.4446
-13.2122
-16.2385
-19.4182
-22.6453
-25.8164
-28.8354
-31.6164
-34.0912
-36.2137
-37.9623
-39.333
-40.3291
-40.9529
-41.209
-41.1129
-40.6971
-40.0096
-39.1034
-38.0205
-36.7951
-35.4586
-34.0407
-32.571
-31.0827
-29.6183
-28.2404
-27.0442
-26.1581
-25.7176
-25.8174
-26.4811
-27.669
-29.3072
-31.3131
-33.6095
-36.1285
-38.8097
-41.5987
-44.4476
-47.3178
-50.1796
-53.0119
-55.8043
-58.5559
-61.2748
-63.978
-66.6902
-69.4406
-72.2515
-75.1227
-78.0164
-80.8497
-83.5028
-85.8447
-87.7656
-89.1982
-90.1168
-90.5316
-90.4611
-89.8503
-88.6133
-86.716
-84.1998
-81.1616
-77.7212
-74.0106
-70.1905
-66.4234
-62.7552
-59.0134
-54.8647
-50.0118
-44.4082
-38.3167
-32.1492
-26.2688
-20.9008
-16.1399
-11.9921
-8.41572
-5.34881
-2.72542
-0.483248
1.43327
3.07214
4.4744
5.67487
6.70304
7.58387
8.33857
8.9852
9.53913
10.0135
10.4195
10.7669
11.0637
11.3171
11.5332
11.7171
11.8733
12.0056
12.1174
12.2116
12.2907
12.3568
12.4118
12.4574
12.495
12.5258
12.5509
12.5712
12.5874
12.6003
12.6102
12.6177
12.6229
12.6261
12.6273
12.6264
12.6234
12.618
12.6101
12.5992
12.5849
12.5666
12.5437
12.5155
12.4806
12.4375
12.3839
12.3166
12.2308
12.1202
11.9761
11.7834
11.5221
11.1686
10.6911
10.0624
9.21236
7.87385
5.82449
3.17254
0.271392
-2.46477
-4.71359
-6.31003
-7.1398
-7.15164
-6.39841
-5.0175
-3.19218
-1.11823
1.02195
3.07568
4.92076
6.45366
7.57989
8.22064
8.33265
7.9244
7.05601
5.82512
4.34828
2.74562
1.13018
-0.400494
-1.76787
-2.91008
-3.78059
-4.3579
-4.62256
-4.5504
-4.15293
-3.46821
-2.81498
-3.64782
-5.17526
-7.24139
-9.70512
-12.425
-15.2677
-18.1216
-20.8999
-23.5352
-25.9716
-28.1579
-30.0483
-31.6054
-32.8064
-33.6443
-34.1252
-34.2592
-34.0549
-33.5227
-32.6876
-31.6015
-30.3377
-28.9635
-27.5248
-26.0599
-24.6056