/*--------------------------------*- C++ -*----------------------------------*\
  =========                 |
  \\      /  F ield         | OpenFOAM: The Open Source CFD Toolbox
   \\    /   O peration     | Website:  https://openfoam.org
    \\  /    A nd           | Version:  9
     \\/     M anipulation  |
\*---------------------------------------------------------------------------*/
FoamFile
{
    format      ascii;
    class       surfaceScalarField;
    location    "200";
    object      phi;
}
// * * * * * * * * * * * * * * * * * * * * * * * * * * * * * * * * * * * * * //

dimensions      [0 3 -1 0 0 0 0];

internalField   nonuniform List<scalar> 
24170
(
3.03531e-06
1.5312e-07
2.86716e-06
1.68196e-07
2.70622e-06
1.61006e-07
2.55099e-06
1.55274e-07
2.40232e-06
1.48726e-07
2.26157e-06
1.40791e-07
2.12942e-06
1.32208e-07
2.00627e-06
1.23189e-07
1.89273e-06
1.13586e-07
1.78959e-06
1.03182e-07
1.69788e-06
9.17692e-08
1.6188e-06
7.91237e-08
1.55381e-06
6.5042e-08
1.5046e-06
4.92602e-08
1.47305e-06
3.15951e-08
1.46265e-06
1.0434e-08
1.47723e-06
-1.4558e-08
-6.86114e-08
1.54588e-06
3.50071e-06
6.96842e-08
3.55982e-06
1.09147e-07
3.60192e-06
1.18973e-07
3.62747e-06
1.29783e-07
3.63843e-06
1.37816e-07
3.63745e-06
1.41813e-07
3.62675e-06
1.42959e-07
3.60818e-06
1.41793e-07
3.58352e-06
1.3829e-07
3.55446e-06
1.3228e-07
3.52271e-06
1.23558e-07
3.49002e-06
1.11851e-07
3.45825e-06
9.68529e-08
3.42934e-06
7.81982e-08
3.40556e-06
5.54051e-08
3.38895e-06
2.70695e-08
3.38224e-06
-7.84331e-09
-5.80633e-08
3.37172e-06
3.67864e-06
5.35766e-08
3.69507e-06
9.27598e-08
3.71446e-06
9.96362e-08
3.73751e-06
1.06768e-07
3.76284e-06
1.12532e-07
3.78956e-06
1.15128e-07
3.81699e-06
1.15562e-07
3.84447e-06
1.14341e-07
3.87148e-06
1.11323e-07
3.89759e-06
1.06194e-07
3.92255e-06
9.86296e-08
3.9462e-06
8.82356e-08
3.9685e-06
7.45754e-08
3.98961e-06
5.71218e-08
4.00977e-06
3.52737e-08
4.02907e-06
7.79576e-09
4.04645e-06
-2.52031e-08
-6.78176e-08
4.05623e-06
3.93567e-06
4.33143e-08
3.94582e-06
8.26771e-08
3.954e-06
9.15167e-08
3.96292e-06
9.79018e-08
3.97265e-06
1.02857e-07
3.98341e-06
1.04405e-07
3.99565e-06
1.03368e-07
4.00958e-06
1.00457e-07
4.02527e-06
9.56718e-08
4.04272e-06
8.87811e-08
4.06185e-06
7.95323e-08
4.08251e-06
6.76127e-08
4.10447e-06
5.26543e-08
4.12743e-06
3.41965e-08
4.15099e-06
1.17447e-08
4.17441e-06
-1.55998e-08
4.1966e-06
-4.73748e-08
-8.71407e-08
4.21595e-06
4.21556e-06
3.48924e-08
4.226e-06
7.22825e-08
4.2344e-06
8.31539e-08
4.24309e-06
8.92436e-08
4.25217e-06
9.38185e-08
4.26149e-06
9.51125e-08
4.27131e-06
9.35833e-08
4.28183e-06
8.99654e-08
4.29319e-06
8.43416e-08
4.30551e-06
7.64952e-08
4.31888e-06
6.61953e-08
4.33335e-06
5.31685e-08
4.34893e-06
3.71e-08
4.36555e-06
1.76084e-08
4.38301e-06
-5.68518e-09
4.40081e-06
-3.33753e-08
4.41809e-06
-6.46272e-08
-1.02901e-07
4.43388e-06
4.51583e-06
2.81734e-08
4.52589e-06
6.22754e-08
4.53469e-06
7.44103e-08
4.54382e-06
8.01635e-08
4.55359e-06
8.41001e-08
4.56374e-06
8.50034e-08
4.57438e-06
8.29902e-08
4.58564e-06
7.87412e-08
4.59761e-06
7.2406e-08
4.61034e-06
6.38044e-08
4.62385e-06
5.2715e-08
4.63816e-06
3.89003e-08
4.6532e-06
2.20858e-08
4.66888e-06
1.96077e-09
4.68495e-06
-2.17249e-08
4.70094e-06
-4.93349e-08
4.71623e-06
-7.98935e-08
-1.17018e-07
4.73038e-06
4.83814e-06
2.27673e-08
4.84766e-06
5.27859e-08
4.8567e-06
6.54118e-08
4.866e-06
7.08975e-08
4.87601e-06
7.41174e-08
4.88653e-06
7.45148e-08
4.89756e-06
7.19849e-08
4.90924e-06
6.70973e-08
4.92161e-06
6.006e-08
4.9347e-06
5.07479e-08
4.94848e-06
3.89652e-08
4.96289e-06
2.45162e-08
4.97782e-06
7.18116e-09
4.99308e-06
-1.32667e-08
5.00833e-06
-3.69523e-08
5.02315e-06
-6.41241e-08
5.03703e-06
-9.37527e-08
-1.29653e-07
5.0497e-06
5.18401e-06
1.83557e-08
5.19289e-06
4.39603e-08
5.20202e-06
5.63349e-08
5.21145e-06
6.15134e-08
5.22165e-06
6.39704e-08
5.23244e-06
6.37584e-08
5.24377e-06
6.06983e-08
5.25569e-06
5.52164e-08
5.26823e-06
4.75553e-08
5.28137e-06
3.76423e-08
5.29504e-06
2.53232e-08
5.30914e-06
1.04431e-08
5.32351e-06
-7.15057e-09
5.33786e-06
-2.75937e-08
5.35185e-06
-5.09079e-08
5.36503e-06
-7.72803e-08
5.37695e-06
-1.05638e-07
-1.39913e-07
5.38724e-06
5.55503e-06
1.46791e-08
5.56323e-06
3.57873e-08
5.57233e-06
4.72625e-08
5.58188e-06
5.19999e-08
5.5922e-06
5.36784e-08
5.60319e-06
5.27985e-08
5.61471e-06
4.921e-08
5.62675e-06
4.32043e-08
5.63931e-06
3.50233e-08
5.65233e-06
2.4652e-08
5.6657e-06
1.19804e-08
5.67926e-06
-3.09243e-09
5.69278e-06
-2.06489e-08
5.70595e-06
-4.07344e-08
5.71837e-06
-6.33022e-08
5.72959e-06
-8.84705e-08
5.7391e-06
-1.15128e-07
-1.47185e-07
5.74642e-06
5.95291e-06
1.15625e-08
5.96046e-06
2.8292e-08
5.96942e-06
3.83472e-08
5.97902e-06
4.24539e-08
5.9894e-06
4.33469e-08
6.00047e-06
4.1771e-08
6.01206e-06
3.76586e-08
6.0241e-06
3.12019e-08
6.03654e-06
2.26184e-08
6.04927e-06
1.19474e-08
6.06215e-06
-8.67001e-10
6.07495e-06
-1.58687e-08
6.0874e-06
-3.30666e-08
6.09913e-06
-5.24392e-08
6.10972e-06
-7.38703e-08
6.11869e-06
-9.74114e-08
6.1255e-06
-1.21912e-07
-1.51178e-07
6.12953e-06
6.37953e-06
8.86216e-09
6.38646e-06
2.13874e-08
6.39519e-06
2.96598e-08
6.40474e-06
3.29342e-08
6.41509e-06
3.30377e-08
6.42613e-06
3.0766e-08
6.43766e-06
2.61573e-08
6.44956e-06
1.93363e-08
6.46171e-06
1.04958e-08
6.47398e-06
-2.86748e-10
6.48615e-06
-1.30092e-08
6.49795e-06
-2.76533e-08
6.50908e-06
-4.4163e-08
6.51913e-06
-6.24695e-08
6.52766e-06
-8.23747e-08
6.53415e-06
-1.03881e-07
6.53806e-06
-1.25796e-07
-1.51791e-07
6.53872e-06
5.74288e-06
6.82575e-09
5.74831e-06
1.60079e-08
5.75542e-06
2.2589e-08
5.76338e-06
2.50123e-08
5.77203e-06
2.44356e-08
5.78123e-06
2.15959e-08
5.79082e-06
1.66028e-08
5.80064e-06
9.55286e-09
5.81054e-06
6.15281e-10
5.82039e-06
-1.01046e-08
5.82996e-06
-2.25572e-08
5.839e-06
-3.6666e-08
5.84721e-06
-5.23652e-08
5.85426e-06
-6.94882e-08
5.85973e-06
-8.78378e-08
5.8632e-06
-1.0733e-07
5.86421e-06
-1.26784e-07
-1.49689e-07
5.86215e-06
7.00028e-06
4.71739e-09
7.00602e-06
1.02921e-08
7.01382e-06
1.48255e-08
7.02272e-06
1.61415e-08
7.03242e-06
1.47728e-08
7.04272e-06
1.13255e-08
7.0534e-06
5.95126e-09
7.06424e-06
-1.25798e-09
7.07504e-06
-1.0156e-08
7.08557e-06
-2.06131e-08
7.09557e-06
-3.25232e-08
7.10471e-06
-4.57944e-08
7.11265e-06
-6.02679e-08
7.11895e-06
-7.57843e-08
7.12318e-06
-9.20477e-08
7.12483e-06
-1.0898e-07
7.12344e-06
-1.25357e-07
-1.44509e-07
7.11828e-06
8.53301e-06
2.56126e-09
8.53898e-06
4.35393e-09
8.54731e-06
6.5197e-09
8.55702e-06
6.45675e-09
8.56763e-06
4.19044e-09
8.57886e-06
1.15901e-10
8.59042e-06
-5.58229e-09
8.60201e-06
-1.28288e-08
8.61335e-06
-2.14743e-08
8.62415e-06
-3.13845e-08
8.63407e-06
-4.24067e-08
8.64271e-06
-5.4413e-08
8.64966e-06
-6.72002e-08
8.65447e-06
-8.05675e-08
8.65662e-06
-9.41974e-08
8.65563e-06
-1.07963e-07
8.65098e-06
-1.20712e-07
-1.35495e-07
8.64202e-06
1.04014e-05
4.01443e-10
1.04074e-05
-1.66916e-09
1.04161e-05
-2.10187e-09
1.04263e-05
-3.76011e-09
1.04376e-05
-7.0248e-09
1.04494e-05
-1.16815e-08
1.04614e-05
-1.7601e-08
1.04733e-05
-2.46737e-08
1.04846e-05
-3.27931e-08
1.0495e-05
-4.17775e-08
1.05042e-05
-5.14994e-08
1.05115e-05
-6.17392e-08
1.05167e-05
-7.23301e-08
1.05191e-05
-8.29903e-08
1.05184e-05
-9.34509e-08
1.0514e-05
-1.0353e-07
1.05055e-05
-1.12214e-07
-1.22264e-07
1.04922e-05
1.26789e-05
-1.71681e-09
1.26849e-05
-7.58351e-09
1.26935e-05
-1.0711e-08
1.27039e-05
-1.41036e-08
1.27152e-05
-1.83827e-08
1.27271e-05
-2.35389e-08
1.2739e-05
-2.94762e-08
1.27505e-05
-3.61201e-08
1.27611e-05
-4.33443e-08
1.27703e-05
-5.10149e-08
1.27778e-05
-5.89416e-08
1.2783e-05
-6.69621e-08
1.27856e-05
-7.48338e-08
1.27849e-05
-8.23582e-08
1.27808e-05
-8.92208e-08
1.27725e-05
-9.53387e-08
1.27602e-05
-9.97762e-08
-1.05076e-07
1.27429e-05
1.54552e-05
-3.71971e-09
1.54608e-05
-1.31524e-08
1.5469e-05
-1.89174e-08
1.5479e-05
-2.40343e-08
1.54899e-05
-2.92636e-08
1.55011e-05
-3.47414e-08
1.55121e-05
-4.04513e-08
1.55224e-05
-4.63429e-08
1.55314e-05
-5.23212e-08
1.55387e-05
-5.82651e-08
1.55438e-05
-6.40214e-08
1.55463e-05
-6.94262e-08
1.55457e-05
-7.42925e-08
1.55418e-05
-7.84391e-08
1.55343e-05
-8.16427e-08
1.55228e-05
-8.38477e-08
1.55074e-05
-8.43366e-08
-8.53002e-08
1.54876e-05
1.88395e-05
-5.53642e-09
1.88445e-05
-1.81414e-08
1.8852e-05
-2.63501e-08
1.8861e-05
-3.30454e-08
1.88708e-05
-3.90456e-08
1.88807e-05
-4.46106e-08
1.88901e-05
-4.98147e-08
1.88985e-05
-5.46591e-08
1.89053e-05
-5.9098e-08
1.89101e-05
-6.3056e-08
1.89125e-05
-6.64331e-08
1.89123e-05
-6.91159e-08
1.8909e-05
-7.09824e-08
1.89025e-05
-7.19201e-08
1.88926e-05
-7.17962e-08
1.88794e-05
-7.06193e-08
1.8863e-05
-6.78789e-08
-6.53988e-08
1.88431e-05
2.2965e-05
-7.13287e-09
2.29694e-05
-2.24898e-08
2.2976e-05
-3.29175e-08
2.29839e-05
-4.09631e-08
2.29924e-05
-4.74834e-08
2.30007e-05
-5.28974e-08
2.30083e-05
-5.73749e-08
2.30147e-05
-6.10121e-08
2.30195e-05
-6.38199e-08
2.30223e-05
-6.5822e-08
2.30229e-05
-6.69748e-08
2.30211e-05
-6.72592e-08
2.30167e-05
-6.66143e-08
2.30099e-05
-6.50252e-08
2.30005e-05
-6.24334e-08
2.29888e-05
-5.89195e-08
2.29751e-05
-5.41535e-08
-4.95686e-08
2.29593e-05
1.68118e-05
-8.23357e-09
1.68147e-05
-2.53247e-08
1.6819e-05
-3.71257e-08
1.68239e-05
-4.58619e-08
1.6829e-05
-5.25542e-08
1.68339e-05
-5.77404e-08
1.68383e-05
-6.1716e-08
1.68419e-05
-6.45587e-08
1.68445e-05
-6.64135e-08
1.6846e-05
-6.72895e-08
1.68463e-05
-6.72723e-08
1.68454e-05
-6.6319e-08
1.68433e-05
-6.44894e-08
1.68401e-05
-6.17457e-08
1.68358e-05
-5.81437e-08
1.68306e-05
-5.3728e-08
1.68248e-05
-4.83267e-08
-4.30652e-08
1.68183e-05
1.46357e-05
-9.35983e-09
1.46385e-05
-2.81187e-08
1.46425e-05
-4.10306e-08
1.46468e-05
-5.01484e-08
1.46511e-05
-5.67937e-08
1.46551e-05
-6.17332e-08
1.46587e-05
-6.52373e-08
1.46617e-05
-6.74942e-08
1.4664e-05
-6.86291e-08
1.46655e-05
-6.87853e-08
1.46662e-05
-6.8001e-08
1.46663e-05
-6.63431e-08
1.46657e-05
-6.3829e-08
1.46644e-05
-6.05247e-08
1.46628e-05
-5.64497e-08
1.46608e-05
-5.17268e-08
1.46587e-05
-4.6199e-08
-4.08432e-08
1.46564e-05
1.27415e-05
-1.07152e-08
1.27448e-05
-3.13593e-08
1.27489e-05
-4.51423e-08
1.27531e-05
-5.42989e-08
1.27571e-05
-6.07559e-08
1.27608e-05
-6.54034e-08
1.27641e-05
-6.84831e-08
1.27669e-05
-7.01989e-08
1.27691e-05
-7.0787e-08
1.27707e-05
-7.04006e-08
1.27718e-05
-6.91183e-08
1.27725e-05
-6.7015e-08
1.27729e-05
-6.41311e-08
1.27729e-05
-6.05545e-08
1.27728e-05
-5.63089e-08
1.27726e-05
-5.15295e-08
1.27725e-05
-4.60878e-08
-4.07855e-08
1.27725e-05
1.10927e-05
-1.25041e-08
1.10968e-05
-3.54145e-08
1.11014e-05
-4.96835e-08
1.11056e-05
-5.84676e-08
1.11095e-05
-6.46107e-08
1.11131e-05
-6.8963e-08
1.11163e-05
-7.16437e-08
1.1119e-05
-7.292e-08
1.11213e-05
-7.30912e-08
1.11233e-05
-7.23213e-08
1.11249e-05
-7.071e-08
1.11263e-05
-6.83197e-08
1.11274e-05
-6.52491e-08
1.11284e-05
-6.15427e-08
1.11294e-05
-5.73011e-08
1.11305e-05
-5.25928e-08
1.11318e-05
-4.73993e-08
-4.23432e-08
1.11334e-05
9.6577e-06
-1.49843e-08
9.66286e-06
-4.05427e-08
9.66786e-06
-5.4665e-08
9.67213e-06
-6.2711e-08
9.676e-06
-6.84512e-08
9.67947e-06
-7.24066e-08
9.68247e-06
-7.46103e-08
9.68503e-06
-7.54617e-08
9.68726e-06
-7.52953e-08
9.68922e-06
-7.42564e-08
9.69096e-06
-7.24264e-08
9.69256e-06
-6.98882e-08
9.69407e-06
-6.67248e-08
9.69557e-06
-6.30227e-08
9.69713e-06
-5.88399e-08
9.69883e-06
-5.42787e-08
9.70074e-06
-4.93047e-08
-4.44073e-08
9.70282e-06
8.40892e-06
-1.85451e-08
8.41525e-06
-4.68439e-08
8.42041e-06
-5.98056e-08
8.42469e-06
-6.6964e-08
8.42867e-06
-7.2413e-08
8.43223e-06
-7.59428e-08
8.43529e-06
-7.76397e-08
8.43792e-06
-7.80732e-08
8.44023e-06
-7.75863e-08
8.44228e-06
-7.62964e-08
8.44416e-06
-7.42789e-08
8.44592e-06
-7.16216e-08
8.44763e-06
-6.84143e-08
8.44937e-06
-6.47356e-08
8.4512e-06
-6.06509e-08
8.45318e-06
-5.62525e-08
8.45544e-06
-5.15361e-08
-4.694e-08
8.45798e-06
7.32245e-06
-2.36997e-08
7.33006e-06
-5.44343e-08
7.33507e-06
-6.4792e-08
7.33901e-06
-7.08807e-08
7.34258e-06
-7.59625e-08
7.34565e-06
-7.89933e-08
7.34826e-06
-8.02273e-08
7.35054e-06
-8.03379e-08
7.35258e-06
-7.96113e-08
7.35444e-06
-7.81348e-08
7.35617e-06
-7.5996e-08
7.35784e-06
-7.32663e-08
7.35951e-06
-7.00612e-08
7.36124e-06
-6.64434e-08
7.36308e-06
-6.24786e-08
7.36509e-06
-5.82453e-08
7.36733e-06
-5.37571e-08
-4.92719e-08
7.3697e-06
6.37705e-06
-3.06807e-08
6.38542e-06
-6.27834e-08
6.39039e-06
-6.97453e-08
6.39439e-06
-7.4837e-08
6.39777e-06
-7.93361e-08
6.40053e-06
-8.17431e-08
6.40295e-06
-8.26266e-08
6.40525e-06
-8.26215e-08
6.40754e-06
-8.18927e-08
6.4099e-06
-8.04838e-08
6.41238e-06
-7.84378e-08
6.41498e-06
-7.58592e-08
6.41773e-06
-7.28017e-08
6.42065e-06
-6.93446e-08
6.42373e-06
-6.55455e-08
6.42699e-06
-6.14881e-08
6.43044e-06
-5.7197e-08
-5.2876e-08
6.4341e-06
5.55637e-06
-4.15827e-08
5.56653e-06
-7.29199e-08
5.576e-06
-7.91915e-08
5.58684e-06
-8.56465e-08
5.59855e-06
-9.10333e-08
5.6108e-06
-9.39754e-08
5.62342e-06
-9.5239e-08
5.63623e-06
-9.54137e-08
5.64898e-06
-9.46386e-08
5.6615e-06
-9.29721e-08
5.6736e-06
-9.05208e-08
5.68516e-06
-8.74001e-08
5.69608e-06
-8.37126e-08
5.7063e-06
-7.95613e-08
5.71581e-06
-7.50437e-08
5.72463e-06
-7.03012e-08
5.73281e-06
-6.5342e-08
-6.0625e-08
5.74059e-06
4.8957e-06
-1.09665e-07
4.9496e-06
-1.26802e-07
4.99457e-06
-1.24131e-07
5.0305e-06
-1.21538e-07
5.05768e-06
-1.18196e-07
5.07724e-06
-1.13525e-07
5.09026e-06
-1.08248e-07
5.09768e-06
-1.02812e-07
5.10035e-06
-9.73005e-08
5.09914e-06
-9.17245e-08
5.09478e-06
-8.61328e-08
5.08796e-06
-8.05704e-08
5.07931e-06
-7.50537e-08
5.06938e-06
-6.96197e-08
5.05866e-06
-6.43075e-08
5.04755e-06
-5.91761e-08
5.03646e-06
-5.42182e-08
-4.97682e-08
5.02564e-06
4.09301e-06
3.96621e-06
3.84208e-06
3.72055e-06
3.60235e-06
3.48883e-06
3.38058e-06
3.27777e-06
3.18048e-06
3.08876e-06
3.00263e-06
2.92206e-06
2.84701e-06
2.77739e-06
2.71309e-06
2.65392e-06
2.59971e-06
2.54995e-06
-3.52549e-07
3.5163e-07
-7.38097e-07
3.84833e-07
-1.13329e-06
3.94696e-07
-1.51102e-06
3.7726e-07
-1.84474e-06
3.33341e-07
-2.12157e-06
2.76331e-07
-2.18574e-06
6.3794e-08
-1.92928e-06
-2.56901e-07
-1.37014e-06
-5.59437e-07
-5.70898e-07
-7.99953e-07
3.66357e-07
-9.37641e-07
1.39888e-06
-1.03301e-06
2.46103e-06
-1.06222e-06
3.48484e-06
-1.02403e-06
4.42685e-06
-9.42016e-07
5.2582e-06
-8.31483e-07
5.96233e-06
-7.04115e-07
6.52944e-06
-5.67206e-07
6.95313e-06
-4.23674e-07
7.2274e-06
-2.74351e-07
7.34261e-06
-1.15217e-07
7.28359e-06
5.89259e-08
7.04036e-06
2.43214e-07
6.61352e-06
4.26736e-07
6.01382e-06
5.99664e-07
5.26345e-06
7.50236e-07
4.39967e-06
8.63719e-07
3.47507e-06
9.24442e-07
2.55507e-06
9.19884e-07
1.70833e-06
8.46517e-07
9.93692e-07
7.14449e-07
4.57077e-07
5.36086e-07
8.90155e-08
3.67547e-07
-2.80665e-07
3.69226e-07
-6.9444e-07
4.13566e-07
-1.16769e-06
4.73083e-07
-1.67535e-06
5.07504e-07
-2.12369e-06
4.48214e-07
-2.35781e-06
2.33916e-07
-2.29581e-06
-6.22867e-08
-2.1536e-06
-1.42303e-07
-1.69401e-06
-4.5975e-07
-9.62458e-07
-7.31649e-07
-1.63413e-07
-7.99293e-07
5.05734e-07
-6.69238e-07
9.30598e-07
-4.25042e-07
1.1599e-06
-2.29371e-07
1.47e-06
-3.10246e-07
1.72252e-06
-2.52571e-07
1.63052e-06
9.17931e-08
1.15605e-06
4.7438e-07
2.1267e-07
9.43121e-07
-1.1325e-06
1.34512e-06
-2.60769e-06
1.47508e-06
-4.07267e-06
1.46496e-06
-5.44793e-06
1.37519e-06
-6.68782e-06
1.23987e-06
-7.77029e-06
1.08242e-06
-8.68881e-06
9.18512e-07
-9.44662e-06
7.57768e-07
-1.00519e-05
6.05246e-07
-1.05148e-05
4.62906e-07
-1.08461e-05
3.31224e-07
-1.10565e-05
2.10427e-07
-1.11588e-05
1.0221e-07
-1.11689e-05
1.01232e-08
-1.11041e-05
-6.47901e-08
-1.09768e-05
-1.27356e-07
-1.07938e-05
-1.83014e-07
-1.05599e-05
-2.33923e-07
-1.02791e-05
-2.8083e-07
-9.95514e-06
-3.23952e-07
-9.59192e-06
-3.63221e-07
-9.1935e-06
-3.98432e-07
-8.76424e-06
-4.2926e-07
-8.30892e-06
-4.55343e-07
-7.83261e-06
-4.76305e-07
-7.34078e-06
-4.91859e-07
-6.83894e-06
-5.01835e-07
-6.3327e-06
-5.06259e-07
-5.82737e-06
-5.05328e-07
-5.32794e-06
-4.99435e-07
-4.83885e-06
-4.89088e-07
-4.36396e-06
-4.74895e-07
-3.90648e-06
-4.57477e-07
-3.46902e-06
-4.37467e-07
-3.05354e-06
-4.15468e-07
-2.66145e-06
-3.9209e-07
-2.29352e-06
-3.67921e-07
-1.94999e-06
-3.43534e-07
-1.63062e-06
-3.19401e-07
-1.33491e-06
-2.95795e-07
-1.062e-06
-2.73023e-07
-8.11344e-07
-2.50814e-07
-5.8315e-07
-2.28403e-07
-3.76505e-07
-2.06972e-07
-1.77138e-07
-1.99777e-07
3.0314e-08
-2.07883e-07
2.41702e-07
-2.11691e-07
4.39645e-07
-1.98182e-07
6.19311e-07
-1.79842e-07
7.82187e-07
-1.63016e-07
9.30215e-07
-1.48121e-07
1.06498e-06
-1.34817e-07
1.18774e-06
-1.22788e-07
1.29955e-06
-1.11797e-07
1.40125e-06
-1.01674e-07
1.49358e-06
-9.229e-08
1.57717e-06
-8.35498e-08
1.65258e-06
-7.5368e-08
1.7203e-06
-6.76776e-08
1.78075e-06
-6.04051e-08
1.83428e-06
-5.34928e-08
1.88121e-06
-4.68906e-08
1.92179e-06
-4.05451e-08
1.95611e-06
-3.4288e-08
1.98413e-06
-2.79979e-08
2.00607e-06
-2.19175e-08
2.0216e-06
-1.55179e-08
2.02785e-06
-6.23026e-09
2.02138e-06
6.5045e-09
2.00061e-06
2.0822e-08
1.96472e-06
3.59511e-08
1.91321e-06
5.15848e-08
1.84596e-06
6.73105e-08
1.76338e-06
8.26373e-08
1.66647e-06
9.69536e-08
1.5569e-06
1.09613e-07
1.43695e-06
1.19973e-07
1.30942e-06
1.27547e-07
1.17729e-06
1.32117e-07
1.04351e-06
1.33767e-07
9.10959e-07
1.32504e-07
7.83248e-07
1.2765e-07
6.64478e-07
1.18673e-07
5.54444e-07
1.09917e-07
4.40561e-07
1.13721e-07
3.16971e-07
1.23387e-07
2.50012e-07
6.67074e-08
3.45888e-07
-9.61067e-08
4.87522e-07
-1.41888e-07
2.77421e-07
2.0983e-07
-5.74819e-08
3.3462e-07
5.79434e-07
-6.37015e-07
1.40056e-06
-8.21206e-07
1.52944e-06
-1.28921e-07
3.89155e-07
1.14026e-06
-2.04411e-06
2.43328e-06
-4.47387e-06
2.42978e-06
-6.22173e-06
1.74789e-06
-7.24129e-06
1.01961e-06
-7.6857e-06
4.44456e-07
-7.74274e-06
5.71065e-08
-7.56321e-06
-1.79458e-07
-7.21534e-06
-3.47785e-07
-6.72169e-06
-4.93546e-07
-6.10581e-06
-6.15776e-07
-5.39676e-06
-7.08918e-07
-4.6235e-06
-7.73119e-07
-3.80981e-06
-8.13526e-07
-2.97531e-06
-8.34322e-07
-2.14922e-06
-8.258e-07
-1.31635e-06
-8.32548e-07
-3.4077e-07
-9.75175e-07
7.91821e-07
-1.13229e-06
1.90367e-06
-1.11161e-06
2.89945e-06
-9.95594e-07
3.78124e-06
-8.81629e-07
4.55029e-06
-7.68924e-07
5.20427e-06
-6.53878e-07
5.74452e-06
-5.40175e-07
6.17763e-06
-4.33041e-07
6.48787e-06
-3.10207e-07
6.6167e-06
-1.28812e-07
6.525e-06
9.16856e-08
6.21994e-06
3.0502e-07
5.72198e-06
4.97881e-07
5.06309e-06
6.58798e-07
4.2821e-06
7.80876e-07
8.43763e-07
3.43825e-06
-9.40594e-08
4.44878e-07
-2.66485e-07
5.56474e-07
-4.12972e-07
5.40537e-07
-4.65854e-07
4.29318e-07
-3.48037e-07
2.14495e-07
7.11731e-08
-1.44287e-07
5.77427e-07
-4.43227e-07
1.1644e-06
-8.44299e-07
1.91076e-06
-1.30601e-06
2.77738e-06
-1.66677e-06
3.71547e-06
-1.87583e-06
4.62882e-06
-1.94651e-06
5.47128e-06
-1.90474e-06
6.22901e-06
-1.78187e-06
6.89481e-06
-1.60785e-06
7.46703e-06
-1.40378e-06
7.94605e-06
-1.18316e-06
8.33289e-06
-9.54105e-07
8.63026e-06
-7.21058e-07
8.84136e-06
-4.85504e-07
8.97443e-06
-2.48307e-07
9.04082e-06
-7.51458e-09
9.03968e-06
2.44323e-07
8.95471e-06
5.11655e-07
8.76139e-06
7.92949e-07
8.43221e-06
1.07936e-06
7.94327e-06
1.35262e-06
7.28266e-06
1.58499e-06
6.45884e-06
1.74366e-06
5.50464e-06
1.80066e-06
4.47423e-06
1.7448e-06
3.4244e-06
1.58583e-06
2.42765e-06
1.36422e-06
1.63241e-06
1.16432e-06
1.02318e-06
1.02265e-06
5.68632e-07
9.27389e-07
2.85717e-07
7.90182e-07
2.18928e-07
5.14499e-07
1.9911e-07
2.53037e-07
-2.03465e-08
1.56452e-07
2.30819e-07
-3.93601e-07
9.18845e-07
-1.14786e-06
1.67313e-06
-1.48598e-06
2.18589e-06
-1.31212e-06
2.38505e-06
-8.68455e-07
2.47681e-06
-5.1688e-07
2.2756e-06
-2.82073e-08
1.49857e-06
4.66688e-07
-1.21633e-08
1.2581e-06
-1.98473e-06
2.06431e-06
-3.94573e-06
2.43534e-06
-5.65815e-06
2.65551e-06
-7.04146e-06
2.7284e-06
-8.17134e-06
2.60493e-06
-9.07288e-06
2.36648e-06
-9.7683e-06
2.07058e-06
-1.02869e-05
1.75843e-06
-1.06611e-05
1.45663e-06
-1.09224e-05
1.17978e-06
-1.10981e-05
9.33428e-07
-1.12102e-05
7.17349e-07
-1.12756e-05
5.28251e-07
-1.13061e-05
3.61653e-07
-1.13086e-05
2.1298e-07
-1.12842e-05
7.7788e-08
-1.1226e-05
-4.81227e-08
-1.11231e-05
-1.67759e-07
-1.09693e-05
-2.81153e-07
-1.07649e-05
-3.87471e-07
-1.05121e-05
-4.86755e-07
-1.02138e-05
-5.7906e-07
-9.87353e-06
-6.64263e-07
-9.49472e-06
-7.42033e-07
-9.08132e-06
-8.11842e-07
-8.63759e-06
-8.72986e-07
-8.16829e-06
-9.24652e-07
-7.67857e-06
-9.66034e-07
-7.17396e-06
-9.96482e-07
-6.66016e-06
-1.01564e-06
-6.1429e-06
-1.02353e-06
-5.62764e-06
-1.02059e-06
-5.11941e-06
-1.00766e-06
-4.62265e-06
-9.85848e-07
-4.1411e-06
-9.56451e-07
-3.67773e-06
-9.20845e-07
-3.2348e-06
-8.80393e-07
-2.81389e-06
-8.3638e-07
-2.41598e-06
-7.89999e-07
-2.04159e-06
-7.42308e-07
-1.69091e-06
-6.94222e-07
-1.36393e-06
-6.46419e-07
-1.06026e-06
-5.99545e-07
-7.78813e-07
-5.54602e-07
-5.1845e-07
-5.11357e-07
-2.69332e-07
-4.77777e-07
-1.38066e-08
-4.62768e-07
2.40828e-07
-4.54637e-07
4.71396e-07
-4.38623e-07
6.73005e-07
-4.13448e-07
8.57998e-07
-3.83301e-07
1.03069e-06
-3.52638e-07
1.19145e-06
-3.23858e-07
1.34062e-06
-2.97347e-07
1.47875e-06
-2.72974e-07
1.60648e-06
-2.50521e-07
1.72446e-06
-2.2977e-07
1.83334e-06
-2.10528e-07
1.93372e-06
-1.92631e-07
2.02614e-06
-1.75933e-07
2.11111e-06
-1.60301e-07
2.18909e-06
-1.45615e-07
2.26048e-06
-1.31762e-07
2.32566e-06
-1.18637e-07
2.38492e-06
-1.06123e-07
2.43849e-06
-9.40875e-08
2.48664e-06
-8.24127e-08
2.52965e-06
-7.09837e-08
2.56726e-06
-5.95167e-08
2.59937e-06
-4.76138e-08
2.62835e-06
-3.51965e-08
2.65686e-06
-2.19792e-08
2.68497e-06
-7.24248e-09
2.71152e-06
9.4628e-09
2.73479e-06
2.83681e-08
2.75249e-06
4.96572e-08
2.76182e-06
7.33531e-08
2.75966e-06
9.91521e-08
2.74292e-06
1.26376e-07
2.70892e-06
1.53991e-07
2.65567e-06
1.80814e-07
2.58216e-06
2.05618e-07
2.4889e-06
2.2702e-07
2.378e-06
2.43386e-07
2.25176e-06
2.53862e-07
2.1099e-06
2.60491e-07
1.95294e-06
2.66821e-07
1.79839e-06
2.68206e-07
1.68426e-06
2.3743e-07
1.60793e-06
1.42931e-07
1.46298e-06
4.86977e-08
1.15668e-06
1.64275e-07
9.64597e-07
4.01774e-07
1.38521e-06
-8.60855e-08
1.9762e-06
-1.22807e-06
2.24341e-06
-1.08848e-06
3.40031e-07
1.77443e-06
-2.71884e-06
4.19913e-06
-4.95087e-06
4.66531e-06
-6.11798e-06
3.5969e-06
-6.62152e-06
2.25145e-06
-6.78414e-06
1.18227e-06
-6.79142e-06
4.51784e-07
-6.69436e-06
-3.9886e-08
-6.47229e-06
-4.01443e-07
-6.09734e-06
-7.22639e-07
-5.57539e-06
-1.01538e-06
-4.92858e-06
-1.26245e-06
-4.18726e-06
-1.45007e-06
-3.38026e-06
-1.57994e-06
-2.52734e-06
-1.66621e-06
-1.63787e-06
-1.72352e-06
-6.25338e-07
-1.838e-06
5.45081e-07
-2.0027e-06
1.69122e-06
-2.1211e-06
2.69288e-06
-2.13376e-06
3.61772e-06
-2.03627e-06
4.49126e-06
-1.86898e-06
5.28839e-06
-1.67861e-06
5.99448e-06
-1.4749e-06
6.60337e-06
-1.26266e-06
7.1075e-06
-1.04421e-06
7.49381e-06
-8.19276e-07
7.77319e-06
-5.89541e-07
8.00177e-06
-3.5736e-07
8.20284e-06
-1.09389e-07
8.33258e-06
1.75251e-07
8.33136e-06
4.99044e-07
8.15416e-06
8.35919e-07
7.75183e-06
1.18313e-06
1.39538e-06
7.20015e-06
3.12231e-07
1.3194e-07
4.57653e-07
4.10493e-07
6.07085e-07
3.90559e-07
8.25405e-07
2.1042e-07
1.17074e-06
-1.31284e-07
1.66435e-06
-6.38232e-07
2.45932e-06
-1.23837e-06
3.42208e-06
-1.80724e-06
4.35767e-06
-2.24168e-06
5.18452e-06
-2.49375e-06
5.88444e-06
-2.57581e-06
6.46614e-06
-2.52832e-06
6.95309e-06
-2.39173e-06
7.36751e-06
-2.19638e-06
7.72333e-06
-1.96371e-06
8.02783e-06
-1.70836e-06
8.28444e-06
-1.43979e-06
8.49423e-06
-1.16396e-06
8.65765e-06
-8.84502e-07
8.77515e-06
-6.03048e-07
8.84723e-06
-3.20408e-07
8.87686e-06
-3.71907e-08
8.87157e-06
2.49592e-07
8.83867e-06
5.44512e-07
8.77945e-06
8.52137e-07
8.68342e-06
1.17534e-06
8.5246e-06
1.51142e-06
8.26325e-06
1.8463e-06
7.85647e-06
2.1504e-06
7.27572e-06
2.38137e-06
6.52299e-06
2.49749e-06
5.63405e-06
2.47473e-06
4.68449e-06
2.31373e-06
3.79715e-06
2.05159e-06
3.06953e-06
1.7502e-06
2.54148e-06
1.45536e-06
2.20003e-06
1.13153e-06
1.97863e-06
7.35786e-07
1.85735e-06
3.74215e-07
2.1054e-06
-9.16945e-08
2.65762e-06
-9.45867e-07
3.14226e-06
-1.63256e-06
3.28889e-06
-1.63265e-06
3.1515e-06
-1.17479e-06
2.48725e-06
-2.04266e-07
1.23584e-06
7.34463e-07
-7.22756e-07
1.93035e-06
-3.05549e-06
2.79939e-06
-5.10871e-06
3.31131e-06
-6.64514e-06
3.60072e-06
-7.83e-06
3.62018e-06
-8.66714e-06
3.49262e-06
-9.20187e-06
3.26311e-06
-9.55354e-06
2.95657e-06
-9.80319e-06
2.6161e-06
-1.00066e-05
2.27394e-06
-1.01976e-05
1.94944e-06
-1.03912e-05
1.65017e-06
-1.05876e-05
1.37616e-06
-1.07781e-05
1.1239e-06
-1.09499e-05
8.89136e-07
-1.10899e-05
6.68235e-07
-1.11869e-05
4.58584e-07
-1.12325e-05
2.58582e-07
-1.12223e-05
6.75673e-08
-1.11555e-05
-1.14983e-07
-1.10345e-05
-2.88835e-07
-1.08618e-05
-4.53885e-07
-1.06394e-05
-6.09862e-07
-1.03697e-05
-7.56458e-07
-1.00554e-05
-8.93343e-07
-9.6996e-06
-1.02008e-06
-9.3056e-06
-1.13604e-06
-8.8771e-06
-1.24034e-06
-8.41827e-06
-1.33181e-06
-7.93386e-06
-1.40906e-06
-7.42921e-06
-1.47069e-06
-6.91017e-06
-1.51553e-06
-6.38287e-06
-1.54294e-06
-5.85342e-06
-1.55297e-06
-5.32765e-06
-1.54637e-06
-4.8108e-06
-1.52452e-06
-4.30736e-06
-1.48928e-06
-3.82102e-06
-1.4428e-06
-3.35455e-06
-1.38731e-06
-2.90995e-06
-1.325e-06
-2.48845e-06
-1.25787e-06
-2.09071e-06
-1.18775e-06
-1.71679e-06
-1.11622e-06
-1.36644e-06
-1.04458e-06
-1.03917e-06
-9.73734e-07
-7.33241e-07
-9.05555e-07
-4.45791e-07
-8.42194e-07
-1.65872e-07
-7.91437e-07
1.11662e-07
-7.55488e-07
3.7145e-07
-7.22682e-07
6.01765e-07
-6.85074e-07
8.07855e-07
-6.44806e-07
9.96892e-07
-6.02579e-07
1.17299e-06
-5.59467e-07
1.33754e-06
-5.17257e-07
1.49086e-06
-4.77221e-07
1.63326e-06
-4.39776e-07
1.76522e-06
-4.04937e-07
1.88729e-06
-3.72576e-07
2.00005e-06
-3.42511e-07
2.1041e-06
-3.14545e-07
2.19999e-06
-2.88489e-07
2.28825e-06
-2.64159e-07
2.36937e-06
-2.41386e-07
2.4438e-06
-2.20003e-07
2.51193e-06
-1.99858e-07
2.57412e-06
-1.80797e-07
2.63069e-06
-1.62663e-07
2.68191e-06
-1.45285e-07
2.72803e-06
-1.28514e-07
2.76924e-06
-1.12176e-07
2.80572e-06
-9.59805e-08
2.83771e-06
-7.95933e-08
2.86536e-06
-6.28395e-08
2.88894e-06
-4.55201e-08
2.90918e-06
-2.74353e-08
2.9271e-06
-8.40398e-09
2.94368e-06
1.18435e-08
2.95986e-06
3.35301e-08
2.97643e-06
5.68298e-08
2.99369e-06
8.19305e-08
3.01112e-06
1.08973e-07
3.02711e-06
1.38029e-07
3.03888e-06
1.69049e-07
3.04288e-06
2.01635e-07
3.03521e-06
2.34682e-07
3.01197e-06
2.66623e-07
2.9692e-06
2.96603e-07
2.90468e-06
3.24987e-07
2.82176e-06
3.49704e-07
2.72941e-06
3.60508e-07
2.62869e-06
3.38075e-07
2.48991e-06
2.81625e-07
2.26868e-06
2.69823e-07
2.03713e-06
3.95709e-07
2.01908e-06
4.19719e-07
2.3027e-06
-3.69786e-07
2.5172e-06
-1.44264e-06
1.28787e-06
1.40791e-07
-1.46422e-06
4.52649e-06
-3.59378e-06
6.32868e-06
-4.52141e-06
5.59294e-06
-4.9047e-06
3.9802e-06
-5.15586e-06
2.50262e-06
-5.34926e-06
1.3757e-06
-5.41724e-06
5.19793e-07
-5.32939e-06
-1.27685e-07
-5.10856e-06
-6.22213e-07
-4.74032e-06
-1.09079e-06
-4.21897e-06
-1.53665e-06
-3.56676e-06
-1.91456e-06
-2.81689e-06
-2.19983e-06
-1.99363e-06
-2.40306e-06
-1.10288e-06
-2.5568e-06
-1.13827e-07
-2.71241e-06
9.28138e-07
-2.87984e-06
1.9403e-06
-3.01477e-06
2.89509e-06
-3.07582e-06
3.79607e-06
-3.03467e-06
4.64978e-06
-2.88992e-06
5.45157e-06
-2.6707e-06
6.18282e-06
-2.4098e-06
6.83019e-06
-2.12221e-06
7.3855e-06
-1.81791e-06
7.84472e-06
-1.50339e-06
8.20679e-06
-1.1813e-06
8.47161e-06
-8.54339e-07
8.64289e-06
-5.28625e-07
8.73892e-06
-2.05419e-07
8.78794e-06
1.26214e-07
8.80735e-06
4.79599e-07
8.7913e-06
8.51936e-07
8.70327e-06
1.27113e-06
1.61959e-06
8.47905e-06
1.2639e-07
4.57862e-09
2.79761e-07
2.56425e-07
4.76196e-07
1.93559e-07
9.67196e-07
-2.81018e-07
1.84921e-06
-1.01351e-06
2.96737e-06
-1.75656e-06
4.07901e-06
-2.3501e-06
5.01189e-06
-2.74023e-06
5.71153e-06
-2.94138e-06
6.2119e-06
-2.99423e-06
6.57592e-06
-2.93989e-06
6.85763e-06
-2.81012e-06
7.09185e-06
-2.626e-06
7.29664e-06
-2.40126e-06
7.47901e-06
-2.14612e-06
7.63983e-06
-1.86925e-06
7.7778e-06
-1.57779e-06
7.89112e-06
-1.27733e-06
7.97857e-06
-9.71971e-07
8.03973e-06
-6.64255e-07
8.07527e-06
-3.55978e-07
8.08659e-06
-4.85554e-08
8.07601e-06
2.60149e-07
8.0477e-06
5.7278e-07
8.0084e-06
8.91409e-07
7.96466e-06
1.21905e-06
7.91616e-06
1.55988e-06
7.84652e-06
1.91591e-06
7.71848e-06
2.27841e-06
7.4823e-06
2.61751e-06
7.09755e-06
2.88222e-06
6.55488e-06
3.01736e-06
5.88562e-06
2.98295e-06
5.16531e-06
2.77186e-06
4.49358e-06
2.42189e-06
3.95872e-06
1.99017e-06
3.60391e-06
1.48629e-06
3.38921e-06
9.50407e-07
3.32207e-06
4.41274e-07
3.59432e-06
-3.64003e-07
3.90037e-06
-1.25197e-06
3.82903e-06
-1.56128e-06
3.05216e-06
-8.55846e-07
1.43213e-06
4.45162e-07
-8.63117e-07
2.09094e-06
-3.34903e-06
3.22035e-06
-5.34514e-06
3.92644e-06
-6.82476e-06
4.27901e-06
-7.85857e-06
4.34511e-06
-8.50429e-06
4.24642e-06
-8.91199e-06
4.02787e-06
-9.16643e-06
3.74704e-06
-9.34044e-06
3.43711e-06
-9.50105e-06
3.11717e-06
-9.68538e-06
2.80041e-06
-9.90339e-06
2.49194e-06
-1.01461e-05
2.19216e-06
-1.03958e-05
1.89983e-06
-1.06336e-05
1.61392e-06
-1.08438e-05
1.33411e-06
-1.10153e-05
1.06056e-06
-1.11407e-05
7.93629e-07
-1.12157e-05
5.33579e-07
-1.12377e-05
2.80496e-07
-1.12051e-05
3.49473e-08
-1.1118e-05
-2.02148e-07
-1.09775e-05
-4.29299e-07
-1.07855e-05
-6.45884e-07
-1.05442e-05
-8.51269e-07
-1.02558e-05
-1.04484e-06
-9.92314e-06
-1.226e-06
-9.54913e-06
-1.39409e-06
-9.13688e-06
-1.54829e-06
-8.68981e-06
-1.68741e-06
-8.21188e-06
-1.80974e-06
-7.70782e-06
-1.91313e-06
-7.18324e-06
-1.99526e-06
-6.64458e-06
-2.05419e-06
-6.09871e-06
-2.08881e-06
-5.55251e-06
-2.09917e-06
-5.01239e-06
-2.08649e-06
-4.48396e-06
-2.05294e-06
-3.97183e-06
-2.00141e-06
-3.47951e-06
-1.93512e-06
-3.00949e-06
-1.85733e-06
-2.56336e-06
-1.77114e-06
-2.14195e-06
-1.67929e-06
-1.74547e-06
-1.58422e-06
-1.37345e-06
-1.48824e-06
-1.0252e-06
-1.39286e-06
-6.99056e-07
-1.29991e-06
-3.9102e-07
-1.21368e-06
-9.2879e-08
-1.14044e-06
1.94199e-07
-1.07862e-06
4.58297e-07
-1.01967e-06
6.95564e-07
-9.60028e-07
9.11241e-07
-9.00816e-07
1.10873e-06
-8.42357e-07
1.29086e-06
-7.84753e-07
1.45985e-06
-7.28498e-07
1.61701e-06
-6.74449e-07
1.76306e-06
-6.23278e-07
1.89855e-06
-5.75261e-07
2.02403e-06
-5.30411e-07
2.14009e-06
-4.88607e-07
2.24727e-06
-4.49667e-07
2.34614e-06
-4.1338e-07
2.43721e-06
-3.7953e-07
2.52099e-06
-3.47901e-07
2.59793e-06
-3.18288e-07
2.66845e-06
-2.90487e-07
2.73292e-06
-2.64307e-07
2.79171e-06
-2.39552e-07
2.84511e-06
-2.16036e-07
2.8934e-06
-1.93559e-07
2.93683e-06
-1.71926e-07
2.97559e-06
-1.5092e-07
3.0099e-06
-1.30286e-07
3.04007e-06
-1.09751e-07
3.06633e-06