/*--------------------------------*- C++ -*----------------------------------*\
  =========                 |
  \\      /  F ield         | OpenFOAM: The Open Source CFD Toolbox
   \\    /   O peration     | Website:  https://openfoam.org
    \\  /    A nd           | Version:  9
     \\/     M anipulation  |
\*---------------------------------------------------------------------------*/
FoamFile
{
    format      ascii;
    class       volScalarField;
    location    "200";
    object      T;
}
// * * * * * * * * * * * * * * * * * * * * * * * * * * * * * * * * * * * * * //

dimensions      [0 0 0 1 0 0 0];

internalField   nonuniform List<scalar> 
12225
(
6.94693e+258
-8.34945e+258
8.47003e+258
-8.12762e+258
7.56701e+258
-6.90943e+258
6.2242e+258
-5.55173e+258
4.91452e+258
-4.32354e+258
3.78229e+258
-3.2895e+258
2.84083e+258
-2.42993e+258
2.04902e+258
-1.68863e+258
1.33607e+258
-9.68473e+257
-6.75032e+258
7.66579e+258
-7.74333e+258
7.42349e+258
-6.90971e+258
6.3092e+258
-5.68412e+258
5.0709e+258
-4.48983e+258
3.95084e+258
-3.4571e+258
3.00745e+258
-2.59799e+258
2.22303e+258
-1.87559e+258
1.54743e+258
-1.22827e+258
9.04255e+257
6.60293e+258
-7.13893e+258
7.15363e+258
-6.84381e+258
6.36615e+258
-5.81255e+258
5.23787e+258
-4.67458e+258
4.14088e+258
-3.64568e+258
3.19185e+258
-2.77835e+258
2.40169e+258
-2.0568e+258
1.73759e+258
-1.43717e+258
1.14803e+258
-8.64098e+257
-6.51651e+258
6.75785e+258
-6.69801e+258
6.38605e+258
-5.9337e+258
5.41684e+258
-4.88289e+258
4.36042e+258
-3.86556e+258
3.40623e+258
-2.98498e+258
2.60089e+258
-2.25085e+258
1.93042e+258
-1.63437e+258
1.35718e+258
-1.09386e+258
8.42997e+257
6.50379e+258
-6.5157e+258
6.37524e+258
-6.04964e+258
5.61163e+258
-5.12122e+258
4.61834e+258
-4.12764e+258
3.66318e+258
-3.23191e+258
2.83606e+258
-2.47477e+258
2.14532e+258
-1.84383e+258
1.56594e+258
-1.30734e+258
1.0649e+258
-8.39314e+257
-6.57882e+258
6.40975e+258
-6.186e+258
5.83602e+258
-5.40124e+258
4.92679e+258
-4.44515e+258
3.97706e+258
-3.53453e+258
3.12351e+258
-2.74585e+258
2.40078e+258
-2.08588e+258
1.79782e+258
-1.53298e+258
1.28806e+258
-1.06111e+258
8.53306e+257
6.75732e+258
-6.44153e+258
6.13336e+258
-5.7488e+258
5.306e+258
-4.83667e+258
4.36615e+258
-3.91129e+258
3.48202e+258
-3.08326e+258
2.71647e+258
-2.38089e+258
2.07438e+258
-1.79408e+258
1.53698e+258
-1.30053e+258
1.08339e+258
-8.86427e+257
-7.0571e+258
6.6169e+258
-6.22315e+258
5.79412e+258
-5.33177e+258
4.8563e+258
-4.38633e+258
3.93492e+258
-3.50989e+258
3.11508e+258
-2.75154e+258
2.41844e+258
-2.11387e+258
1.83534e+258
-1.58035e+258
1.34681e+258
-1.13362e+258
9.41035e+257
7.49865e+258
-6.94623e+258
6.4645e+258
-5.98095e+258
5.48709e+258
-4.99366e+258
4.51311e+258
-4.0548e+258
3.62446e+258
-3.22481e+258
2.8564e+258
-2.51832e+258
2.20879e+258
-1.92563e+258
1.66665e+258
-1.43007e+258
1.21474e+258
-1.02034e+258
-8.1058e+258
7.44475e+258
-6.87039e+258
6.3216e+258
-5.78367e+258
5.25972e+258
-4.75669e+258
4.2804e+258
-3.83448e+258
3.4205e+258
-3.03846e+258
2.6873e+258
-2.36528e+258
2.07044e+258
-1.80081e+258
1.55471e+258
-1.33088e+258
1.12846e+258
8.90654e+258
-8.13294e+258
7.45833e+258
-6.83239e+258
6.23689e+258
-5.66895e+258
5.1306e+258
-4.62431e+258
4.15163e+258
-3.71293e+258
3.30761e+258
-2.93438e+258
2.59153e+258
-2.27716e+258
1.98945e+258
-1.72671e+258
1.48753e+258
-1.27065e+258
-9.85655e+258
8.96927e+258
-8.19192e+258
7.48215e+258
-6.81983e+258
6.19765e+258
-5.61362e+258
5.0673e+258
-4.55834e+258
4.086e+258
-3.64908e+258
3.24603e+258
-2.87509e+258
2.53439e+258
-2.22213e+258
1.93661e+258
-1.67623e+258
1.43947e+258
1.10421e+259
-1.00258e+259
9.13206e+258
-8.32414e+258
7.5804e+258
-6.88962e+258
6.24612e+258
-5.64668e+258
5.08909e+258
-4.57148e+258
4.09203e+258
-3.6489e+258
3.24024e+258
-2.86417e+258
2.51888e+258
-2.2026e+258
1.91358e+258
-1.65009e+258
-1.27153e+259
1.15284e+259
-1.0482e+259
9.54281e+258
-8.68718e+258
7.89971e+258
-7.17068e+258
6.49377e+258
-5.86466e+258
5.28017e+258
-4.73776e+258
4.23526e+258
-3.77065e+258
3.34206e+258
-2.94761e+258
2.58545e+258
-2.2537e+258
1.95041e+258
1.50267e+259
-1.36147e+259
1.23694e+259
-1.12579e+259
1.02527e+259
-9.33372e+258
8.4865e+258
-7.70122e+258
6.97117e+258
-6.2917e+258
5.6595e+258
-5.07202e+258
4.52715e+258
-4.02297e+258
3.5576e+258
-3.12913e+258
2.73555e+258
-2.37471e+258
-1.81813e+259
1.6473e+259
-1.49705e+259
1.36362e+259
-1.24362e+259
1.13433e+259
-1.03376e+259
9.40509e+258
-8.53629e+258
7.72505e+258
-6.96732e+258
6.26034e+258
-5.60202e+258
4.99055e+258
-4.42415e+258
3.90096e+258
-3.41888e+258
2.97563e+258
2.2459e+259
-2.03628e+259
1.85321e+259
-1.69165e+259
1.54698e+259
-1.41543e+259
1.29422e+259
-1.18143e+259
1.07584e+259
-9.76675e+258
8.8351e+258
-7.9609e+258
7.14255e+258
-6.37877e+258
5.66822e+258
-5.00932e+258
4.40009e+258
-3.83822e+258
-2.82396e+259
2.56437e+259
-2.34072e+259
2.14525e+259
-1.97092e+259
1.81218e+259
-1.66508e+259
1.52705e+259
-1.39658e+259
1.27287e+259
-1.15557e+259
1.04459e+259
-9.3993e+258
8.41628e+258
-7.49672e+258
6.63995e+258
-5.84454e+258
5.1084e+258
3.60167e+259
-3.28053e+259
3.01112e+259
-2.77951e+259
2.57374e+259
-2.38502e+259
2.20758e+259
-2.0381e+259
1.87497e+259
-1.7177e+259
1.56638e+259
-1.42142e+259
1.28329e+259
-1.15243e+259
1.02913e+259
-9.13562e+258
8.05741e+258
-7.05539e+258
-4.41325e+259
4.04093e+259
-3.74326e+259
3.49388e+259
-3.27213e+259
3.0644e+259
-2.86297e+259
2.66431e+259
-2.46751e+259
2.27316e+259
-2.08251e+259
1.89705e+259
-1.71818e+259
1.5471e+259
-1.38468e+259
1.23152e+259
-1.08792e+259
9.53927e+258
5.10881e+259
-4.70886e+259
4.4093e+259
-4.16541e+259
3.94564e+259
-3.73167e+259
3.51484e+259
-3.29251e+259
3.06541e+259
-2.83586e+259
2.60679e+259
-2.38109e+259
2.16132e+259
-1.94959e+259
1.74746e+259
-1.55604e+259
1.37596e+259
-1.20748e+259
-5.75692e+259
5.35568e+259
-5.08477e+259
4.87115e+259
-4.67005e+259
4.45955e+259
-4.23186e+259
3.98689e+259
-3.72818e+259
3.46067e+259
-3.1895e+259
2.91937e+259
-2.65426e+259
2.39736e+259
-2.15106e+259
1.91704e+259
-1.69634e+259
1.48946e+259
6.34705e+259
-5.98202e+259
5.77771e+259
-5.62075e+259
5.45338e+259
-5.25345e+259
5.01704e+259
-4.74855e+259
4.4556e+259
-4.14649e+259
3.82902e+259
-3.50999e+259
3.19499e+259
-2.88843e+259
2.59359e+259
-2.3128e+259
2.04754e+259
-1.79858e+259
-6.8676e+259
6.59212e+259
-6.49889e+259
6.42365e+259
-6.30132e+259
6.1155e+259
-5.86986e+259
5.57528e+259
-5.24445e+259
4.88956e+259
-4.5214e+259
4.14903e+259
-3.77977e+259
3.41931e+259
-3.07188e+259
2.74049e+259
-2.42708e+259
2.13272e+259
7.30643e+259
-7.19555e+259
7.26145e+259
-7.28814e+259
7.21674e+259
-7.04479e+259
6.78713e+259
-6.46264e+259
6.08972e+259
-5.68473e+259
5.26157e+259
-4.83165e+259
4.40406e+259
-3.98582e+259
3.58215e+259
-3.19673e+259
2.832e+259
-2.48933e+259
-7.65128e+259
7.80854e+259
-8.0796e+259
8.22018e+259
-8.19971e+259
8.03811e+259
-7.76408e+259
7.40523e+259
-6.98585e+259
6.52653e+259
-6.04432e+259
5.55297e+259
-5.06338e+259
4.58387e+259
-4.12067e+259
3.67817e+259
-3.2593e+259
2.86576e+259
7.89033e+259
-8.45425e+259
8.96655e+259
-9.22265e+259
9.24796e+259
-9.09109e+259
8.79558e+259
-8.39778e+259
7.92773e+259
-7.41015e+259
6.86515e+259
-6.30885e+259
5.7539e+259
-5.20998e+259
4.68429e+259
-4.18196e+259
3.70641e+259
-3.25967e+259
-8.01304e+259
9.16189e+259
-9.93231e+259
1.02954e+260
-1.03579e+260
1.01992e+260
-9.87713e+259
9.43602e+259
-8.91139e+259
8.33192e+259
-7.72073e+259
7.09623e+259
-6.47285e+259
5.86162e+259
-5.27073e+259
4.70602e+259
-4.17142e+259
3.66932e+259
8.01126e+259
-9.9645e+259
1.09821e+260
-1.14358e+260
1.15257e+260
-1.13589e+260
1.10055e+260
-1.05171e+260
9.93432e+259
-9.28962e+259
8.60906e+259
-7.91333e+259
7.21864e+259
-6.53735e+259
5.87867e+259
-5.24915e+259
4.65324e+259
-4.09365e+259
-7.88035e+259
1.08959e+260
-1.21158e+260
1.26403e+260
-1.27484e+260
1.25679e+260
-1.2179e+260
1.16398e+260
-1.09956e+260
1.02825e+260
-9.52954e+259
8.75966e+259
-7.99084e+259
7.23683e+259
-6.50781e+259
5.81109e+259
-5.1516e+259
4.53238e+259
-2.54168e+258
2.31448e+258
-2.10514e+258
1.91329e+258
-1.73804e+258
1.5783e+258
-1.43292e+258
1.30074e+258
-1.18065e+258
1.0716e+258
-9.72605e+257
8.82756e+257
-8.01227e+257
7.27241e+257
-6.60094e+257
5.99143e+257
-5.4381e+257
4.93568e+257
-4.47944e+257
4.06507e+257
-3.6887e+257
3.3468e+257
-3.0362e+257
2.75403e+257
-2.4977e+257
2.26484e+257
-2.05333e+257
1.86124e+257
-1.68681e+257
1.52845e+257
-1.38472e+257
1.25429e+257
-1.13598e+257
1.02866e+257
-9.31358e+256
8.43148e+256
-7.632e+256
6.90756e+256
-6.25124e+256
5.65671e+256
-5.11821e+256
4.63052e+256
-4.18885e+256
3.78878e+256
-3.42635e+256
3.098e+256
-2.80049e+256
2.53095e+256
-2.28683e+256
2.06576e+256
-1.86563e+256
1.6845e+256
-1.52064e+256
1.37253e+256
-1.2387e+256
1.11782e+256
-1.00867e+256
9.1015e+255
-8.21233e+255
7.41e+255
-6.6861e+255
6.03304e+255
-5.44391e+255
4.91248e+255
-4.43309e+255
4.00065e+255
-3.61056e+255
3.25866e+255
-2.9412e+255
2.65481e+255
-2.39641e+255
2.16325e+255
-1.95285e+255
1.76297e+255
-1.59157e+255
1.43683e+255
-1.29712e+255
1.17096e+255
-1.057e+255
9.54051e+254
-8.6103e+254
7.76965e+254
-7.00981e+254
6.3229e+254
-5.70184e+254
5.14025e+254
-4.63239e+254
4.17309e+254
-3.7577e+254
3.382e+254
-3.04221e+254
2.73491e+254
-2.457e+254
2.20567e+254
-1.9784e+254
1.77288e+254
-1.58702e+254
1.41892e+254
-1.26686e+254
1.12925e+254
-1.00464e+254
8.91708e+253
-7.89228e+253
6.96085e+253
-6.11241e+253
5.33735e+253
-4.62672e+253
3.9721e+253
-3.36555e+253
2.79955e+253
-2.2669e+253
1.76064e+253
-1.27405e+253
8.00524e+252
-3.33582e+252
-1.33222e+252
6.06317e+252
-1.09215e+253
1.59722e+253
-2.12808e+253
2.69137e+253
-3.29378e+253
3.9421e+253
-4.6431e+253
5.40362e+253
-6.2304e+253
7.1301e+253
-8.10917e+253
9.17379e+253
-1.03298e+254
1.15824e+254
-1.29363e+254
1.43954e+254
-1.59627e+254
1.764e+254
-1.94281e+254
2.13264e+254
-2.33327e+254
2.54432e+254
-2.76528e+254
2.99543e+254
-3.23386e+254
3.47943e+254
-3.73092e+254
3.98693e+254
-4.2455e+254
4.50418e+254
-4.76028e+254
5.01092e+254
-5.25346e+254
5.48485e+254
-5.70152e+254
5.89914e+254
-6.0725e+254
6.21522e+254
-6.31942e+254
6.37526e+254
-6.37042e+254
6.28944e+254
-6.11296e+254
5.81681e+254
-5.37094e+254
4.7381e+254
-3.87254e+254
2.718e+254
-1.20623e+254
-7.46347e+253
3.24057e+254
-6.39782e+254
1.03636e+255
-1.53119e+255
2.14499e+255
-2.90236e+255
3.83244e+255
-4.96961e+255
6.35437e+255
-8.03425e+255
1.00649e+256
-1.25111e+256
1.54484e+256
2.33266e+258
-2.11387e+258
1.91697e+258
-1.73899e+258
1.57777e+258
-1.43157e+258
1.29894e+258
-1.17861e+258
1.06946e+258
-9.70445e+257
8.80631e+257
-7.99161e+257
7.25255e+257
-6.58204e+257
5.97363e+257
-5.42149e+257
4.92034e+257
-4.4654e+257
4.05236e+257
-3.67731e+257
3.33671e+257
-3.02738e+257
2.74642e+257
-2.49121e+257
2.2594e+257
-2.04883e+257
1.85757e+257
-1.68386e+257
1.52611e+257
-1.38287e+257
1.25284e+257
-1.13483e+257
1.02776e+257
-9.30656e+256
8.42608e+256
-7.62792e+256
6.90451e+256
-6.24899e+256
5.65507e+256
-5.11704e+256
4.62968e+256
-4.18836e+256
3.78873e+256
-3.42676e+256
3.09882e+256
-2.80168e+256
2.53245e+256
-2.28853e+256
2.06759e+256
-1.86756e+256
1.68658e+256
-1.52287e+256
1.37482e+256
-1.241e+256
1.12007e+256
-1.01084e+256
9.12195e+255
-8.2314e+255
7.42758e+255
-6.70216e+255
6.04759e+255
-5.457e+255
4.92418e+255
-4.44351e+255
4.00989e+255
-3.61871e+255
3.26583e+255
-2.94751e+255
2.66033e+255
-2.40125e+255
2.1675e+255
-1.95659e+255
1.76627e+255
-1.5945e+255
1.43946e+255
-1.2995e+255
1.17313e+255
-1.05901e+255
9.55933e+254
-8.62819e+254
7.78686e+254
-7.02654e+254
6.33932e+254
-5.71806e+254
5.15637e+254
-4.64847e+254
4.18917e+254
-3.77378e+254
3.39811e+254
-3.05834e+254
2.75104e+254
-2.47313e+254
2.22179e+254
-1.9945e+254
1.78896e+254
-1.60309e+254
1.435e+254
-1.28298e+254
1.14546e+254
-1.021e+254
9.08287e+253
-8.06131e+253
7.13426e+253
-6.29157e+253
5.52387e+253
-4.82245e+253
4.17918e+253
-3.58645e+253
3.03705e+253
-2.52416e+253
2.04123e+253
-1.58197e+253
1.14023e+253
-7.10032e+252
2.85458e+252
1.3936e+252
-5.70285e+252
1.0132e+253
-1.47404e+253
1.95878e+253
-2.47351e+253
3.02433e+253
-3.61744e+253
4.25907e+253
-4.95543e+253
5.71271e+253
-6.53699e+253
7.43416e+253
-8.40986e+253
9.46938e+253
-1.06175e+254
1.18585e+254
-1.31958e+254
1.46321e+254
-1.61691e+254
1.78072e+254
-1.95458e+254
2.13828e+254
-2.33146e+254
2.53363e+254
-2.74412e+254
2.96205e+254
-3.18633e+254
3.41595e+254
-3.64963e+254
3.88551e+254
-4.12121e+254
4.35408e+254
-4.5817e+254
4.80171e+254
-5.01135e+254
5.20738e+254
-5.38586e+254
5.54207e+254
-5.67026e+254
5.76331e+254
-5.81236e+254
5.80631e+254
-5.73123e+254
5.56966e+254
-5.2998e+254
4.89453e+254
-4.32017e+254
3.53552e+254
-2.48972e+254
1.12084e+254
6.46573e+253
-2.90373e+254
5.7604e+254
-9.34824e+254
1.38246e+255
-1.93769e+255
2.62277e+255
-3.46404e+255
4.4926e+255
-5.74503e+255
7.26433e+255
-9.10078e+255
1.1313e+256
-1.39691e+256
-2.12878e+258
1.92735e+258
-1.74581e+258
1.58195e+258
-1.43388e+258
1.29994e+258
-1.17871e+258
1.06895e+258
-9.69519e+257
8.79433e+257
-7.97788e+257
7.23779e+257
-6.56677e+257
5.95827e+257
-5.40638e+257
4.90573e+257
-4.4515e+257
4.03931e+257
-3.66521e+257
3.32563e+257
-3.01736e+257
2.73747e+257
-2.48332e+257
2.25253e+257
-2.04294e+257
1.85261e+257
-1.67975e+257
1.52276e+257
-1.3802e+257
1.25074e+257
-1.1332e+257
1.0265e+257
-9.29674e+256
8.41839e+256
-7.62184e+256
6.8997e+256
-6.24515e+256
5.652e+256
-5.11458e+256
4.62771e+256
-4.18675e+256
3.78744e+256
-3.4258e+256
3.09822e+256
-2.80141e+256
2.53246e+256
-2.28879e+256
2.06818e+256
-1.86851e+256
1.68783e+256
-1.52436e+256
1.37651e+256
-1.24281e+256
1.12195e+256
-1.01272e+256
9.14037e+255
-8.24904e+255
7.44418e+255
-6.71757e+255
6.06172e+255
-5.46985e+255
4.93577e+255
-4.45389e+255
4.01913e+255
-3.6269e+255
3.27306e+255
-2.95384e+255
2.66587e+255
-2.40608e+255
2.1717e+255
-1.96024e+255
1.76945e+255
-1.59728e+255
1.4419e+255
-1.30165e+255
1.17506e+255
-1.06075e+255
9.5754e+254
-8.6432e+254
7.80111e+254
-7.04027e+254
6.35271e+254
-5.73128e+254
5.16951e+254
-4.66161e+254
4.20237e+254
-3.78707e+254
3.41149e+254
-3.07182e+254
2.76461e+254
-2.48677e+254
2.2355e+254
-2.00826e+254
1.80276e+254
-1.61692e+254
1.44887e+254
-1.2969e+254
1.15945e+254
-1.0351e+254
9.22548e+253
-8.20615e+253
7.28214e+253
-6.44345e+253
5.68091e+253
-4.98601e+253
4.35085e+253
-3.76805e+253
3.23069e+253
-2.73223e+253
2.26643e+253
-1.82733e+253
1.40917e+253
-1.00636e+253
6.13384e+252
-2.24831e+252
-1.647e+252
5.60607e+252
-9.68318e+252
1.39331e+253
-1.84112e+253
2.31737e+253
-2.82772e+253
3.37793e+253
-3.97375e+253
4.62095e+253
-5.32526e+253
6.09231e+253
-6.92754e+253
7.83616e+253
-8.823e+253
9.89247e+253
-1.10484e+254
1.22939e+254
-1.36312e+254
1.50618e+254
-1.65859e+254
1.82026e+254
-1.99097e+254
2.17035e+254
-2.35791e+254
2.55298e+254
-2.75469e+254
2.96204e+254
-3.17409e+254
3.38961e+254
-3.60681e+254
3.82309e+254
-4.03621e+254
4.24408e+254
-4.4445e+254
4.63494e+254
-4.81239e+254
4.97328e+254
-5.11334e+254
5.22737e+254
-5.309e+254
5.35028e+254
-5.34127e+254
5.26947e+254
-5.1192e+254
4.87084e+254
-4.49999e+254
3.97642e+254
-3.26282e+254
2.31329e+254
-1.0718e+254
-5.29821e+253
2.57406e+254
-5.1602e+254
8.40736e+254
-1.24579e+255
1.74814e+255
-2.3679e+255
3.12893e+255
-4.05932e+255
5.19217e+255
-6.56634e+255
8.22727e+255
-1.0228e+256
1.26298e+256
1.93745e+258
-1.75366e+258
1.58774e+258
-1.43791e+258
1.30254e+258
-1.1802e+258
1.06959e+258
-9.69527e+257
8.78967e+257
-7.96975e+257
7.22719e+257
-6.55449e+257
5.94494e+257
-5.3925e+257
4.89171e+257
-4.43766e+257
4.02589e+257
-3.65241e+257
3.31358e+257
-3.00615e+257
2.72717e+257
-2.47396e+257
2.24412e+257
-2.03547e+257
1.84605e+257
-1.67407e+257
1.51791e+257
-1.37612e+257
1.24737e+257
-1.13046e+257
1.02431e+257
-9.27937e+256
8.40461e+256
-7.61085e+256
6.89082e+256
-6.23789e+256
5.646e+256
-5.10956e+256
4.6235e+256
-4.18314e+256
3.78431e+256
-3.42311e+256
3.09595e+256
-2.79951e+256
2.53094e+256
-2.28781e+256
2.06774e+256
-1.86854e+256
1.68827e+256
-1.52515e+256
1.37757e+256
-1.24408e+256
1.12336e+256
-1.01422e+256
9.15566e+255
-8.26422e+255
7.45893e+255
-6.73163e+255
6.07493e+255
-5.48209e+255
4.94698e+255
-4.46407e+255
4.02829e+255
-3.63508e+255
3.28031e+255
-2.96023e+255
2.67146e+255
-2.41095e+255
2.17592e+255
-1.96388e+255
1.77258e+255
-1.59997e+255
1.44421e+255
-1.30366e+255
1.1768e+255
-1.06229e+255
9.58909e+254
-8.65564e+254
7.81263e+254
-7.05116e+254
6.3632e+254
-5.74155e+254
5.17971e+254
-4.67184e+254
4.21269e+254
-3.79753e+254
3.42212e+254
-3.08262e+254
2.77559e+254
-2.49791e+254
2.24678e+254
-2.01967e+254
1.81428e+254
-1.62854e+254
1.46058e+254
-1.3087e+254
1.17134e+254
-1.0471e+254
9.34691e+253
-8.32934e+253
7.40761e+253
-6.57187e+253
5.81309e+253
-5.12291e+253
4.49362e+253
-3.91804e+253
3.38946e+253
-2.90155e+253
2.44834e+253
-2.02414e+253
1.62347e+253
-1.24103e+253
8.71668e+252
-5.10296e+252
1.51886e+252
2.08578e+252
-5.76128e+252
9.55835e+252
-1.35283e+253
1.77231e+253
-2.21955e+253
2.6999e+253
-3.21875e+253
3.78155e+253
-4.39374e+253
5.06069e+253
-5.7877e+253
6.57988e+253
-7.44207e+253
8.37878e+253
-9.39404e+253
1.04913e+254
-1.16734e+254
1.29422e+254
-1.42987e+254
1.57428e+254
-1.72734e+254
1.88877e+254
-2.0582e+254
2.23509e+254
-2.41873e+254
2.60828e+254
-2.80275e+254
3.00119e+254
-3.20236e+254
3.40432e+254
-3.60466e+254
3.80142e+254
-3.99265e+254
4.17623e+254
-4.34977e+254
4.5105e+254
-4.65515e+254
4.77988e+254
-4.88001e+254
4.94985e+254
-4.98234e+254
4.96862e+254
-4.89754e+254
4.75508e+254
-4.52371e+254
4.18157e+254
-3.70145e+254
3.04972e+254
-2.18499e+254
1.05664e+254
3.96946e+253
-2.25033e+254
4.59334e+254
-7.53374e+254
1.12003e+255
-1.57466e+255
2.13545e+255
-2.82398e+255
3.66568e+255
-4.69047e+255
5.93349e+255
-7.43582e+255
9.24534e+255
-1.14175e+256
-1.75973e+258
1.59261e+258
-1.44161e+258
1.30518e+258
-1.18193e+258
1.07054e+258
-9.69845e+257
8.78778e+257
-7.96391e+257
7.21833e+257
-6.54344e+257
5.93237e+257
-5.37896e+257
4.87767e+257
-4.42347e+257
4.01185e+257
-3.63875e+257
3.30048e+257
-2.99374e+257
2.71554e+257
-2.46318e+257
2.23422e+257
-2.02646e+257
1.83793e+257
-1.66682e+257
1.5115e+257
-1.37052e+257
1.24253e+257
-1.12634e+257
1.02084e+257
-9.2506e+256
8.38099e+256
-7.59155e+256
6.87503e+256
-6.22489e+256
5.63517e+256
-5.10046e+256
4.61576e+256
-4.17652e+256
3.77858e+256
-3.41814e+256
3.09161e+256
-2.79577e+256
2.52796e+256
-2.28556e+256
2.06615e+256
-1.86755e+256
1.6878e+256
-1.52512e+256
1.3779e+256
-1.2447e+256
1.12421e+256
-1.01523e+256
9.16694e+255
-8.27616e+255
7.47112e+255
-6.74374e+255
6.08668e+255
-5.49329e+255
4.9575e+255
-4.4738e+255
4.0372e+255
-3.64315e+255
3.28755e+255
-2.96666e+255
2.67713e+255
-2.4159e+255
2.18021e+255
-1.96758e+255
1.77574e+255
-1.60265e+255
1.44649e+255
-1.30558e+255
1.17842e+255
-1.06367e+255
9.60089e+254
-8.6659e+254
7.82174e+254
-7.05945e+254
6.37096e+254
-5.749e+254
5.18703e+254
-4.67917e+254
4.22013e+254
-3.80516e+254
3.42996e+254
-3.09071e+254
2.78392e+254
-2.50648e+254
2.25558e+254
-2.02868e+254
1.82348e+254
-1.63792e+254
1.47012e+254
-1.31839e+254
1.18118e+254
-1.05708e+254
9.44818e+253
-8.43234e+253
7.51262e+253
-6.67931e+253
5.92348e+253
-5.23692e+253
4.61207e+253
-4.04188e+253
3.51982e+253
-3.03975e+253
2.59589e+253
-2.18276e+253
1.7951e+253
-1.42788e+253
1.07617e+253
-7.35167e+252
4.00134e+252
-6.6347e+251
-2.70918e+252
6.16419e+252
-9.74967e+252
1.35145e+253
-1.75082e+253
2.17814e+253
-2.63853e+253
3.13717e+253
-3.67929e+253
4.27011e+253
-4.91479e+253
5.6184e+253
-6.38581e+253
7.22161e+253
-8.13003e+253
9.11482e+253
-1.01791e+254
1.13253e+254
-1.2555e+254
1.38688e+254
-1.52661e+254
1.67452e+254
-1.83029e+254
1.99349e+254
-2.16351e+254
2.33961e+254
-2.52088e+254
2.70631e+254
-2.89484e+254
3.08518e+254
-3.27532e+254
3.46314e+254
-3.64676e+254
3.82424e+254
-3.99351e+254
4.15226e+254
-4.29791e+254
4.42749e+254
-4.53751e+254
4.62381e+254
-4.68135e+254
4.7039e+254
-4.68362e+254
4.61067e+254
-4.47262e+254
4.25387e+254
-3.93489e+254
3.4913e+254
-2.89285e+254
2.10227e+254
-1.07387e+254
-2.47986e+253
1.93072e+254
-4.05558e+254
6.72009e+254
-1.00408e+255
1.41567e+255
-1.92324e+255
2.54631e+255
-3.30789e+255
4.23505e+255
-5.35958e+255
6.7186e+255
-8.35542e+255
1.03202e+256
1.59529e+258
-1.44368e+258
1.30665e+258
-1.18281e+258
1.0709e+258
-9.69744e+257
8.78285e+257
-7.95576e+257
7.20765e+257
-6.53083e+257
5.9184e+257
-5.3641e+257
4.8623e+257
-4.40794e+257
3.99644e+257
-3.62367e+257
3.28591e+257
-2.97982e+257
2.70237e+257
-2.45083e+257
2.22273e+257
-2.01587e+257
1.82823e+257
-1.65801e+257
1.50356e+257
-1.36341e+257
1.23623e+257
-1.12079e+257
1.01601e+257
-9.209e+256
8.34555e+256
-7.56164e+256
6.84997e+256
-6.20395e+256
5.61765e+256
-5.08572e+256
4.60327e+256
-4.16586e+256
3.76942e+256
-3.41024e+256
3.08479e+256
-2.79002e+256
2.52325e+256
-2.28179e+256
2.06321e+256
-1.86535e+256
1.68624e+256
-1.52411e+256
1.37737e+256
-1.24456e+256
1.12439e+256
-1.01567e+256
9.17333e+255
-8.28402e+255
7.47997e+255
-6.75318e+255
6.09636e+255
-5.50292e+255
4.96686e+255
-4.48273e+255
4.04557e+255
-3.65089e+255
3.29462e+255
-2.97305e+255
2.68283e+255
-2.42094e+255
2.18462e+255
-1.97139e+255
1.779e+255
-1.60542e+255
1.4488e+255
-1.3075e+255
1.18e+255
-1.06496e+255
9.61146e+254
-8.67455e+254
7.8289e+254
-7.06551e+254
6.37626e+254
-5.75382e+254
5.19161e+254
-4.68369e+254
4.22473e+254
-3.80993e+254
3.43498e+254
-3.09601e+254
2.78953e+254
-2.51241e+254
2.26182e+254
-2.03522e+254
1.83029e+254
-1.64499e+254
1.47744e+254
-1.32593e+254
1.18892e+254
-1.06502e+254
9.52961e+253
-8.51576e+253
7.59815e+253
-6.76717e+253
6.01398e+253
-5.33049e+253
4.70924e+253
-4.14332e+253
3.62632e+253
-3.15225e+253
2.7155e+253
-2.31073e+253
1.93289e+253
-1.57712e+253
1.2387e+253
-9.13032e+252
5.95602e+252
-2.81915e+252
-3.25183e+251
3.52218e+252
-6.81759e+252
1.02579e+253
-1.38904e+253
1.77636e+253
-2.19267e+253
2.64299e+253
-3.1324e+253
3.66604e+253
-4.24901e+253
4.8864e+253
-5.58314e+253
6.34396e+253
-7.17331e+253
8.07521e+253
-9.05319e+253
1.01101e+254
-1.1248e+254
1.2468e+254
-1.37703e+254
1.51537e+254
-1.66159e+254
1.8153e+254
-1.97596e+254
2.14291e+254
-2.31529e+254
2.49211e+254
-2.67226e+254
2.8545e+254
-3.03744e+254
3.21922e+254
-3.39783e+254
3.57137e+254
-3.73782e+254
3.89509e+254
-4.04096e+254
4.17297e+254
-4.28843e+254
4.38415e+254
-4.45647e+254
4.50097e+254
-4.51222e+254
4.4834e+254
-4.40588e+254
4.26877e+254
-4.05828e+254
3.75705e+254
-3.34333e+254
2.79001e+254
-2.06359e+254
1.12291e+254
8.22716e+252
-1.61289e+254
3.54244e+254
-5.95921e+254
8.96873e+254
-1.26967e+255
1.72924e+255
-2.29323e+255
2.98248e+255
-3.82147e+255
4.83895e+255
-6.06853e+255
7.54932e+255
-9.32671e+255
-1.44331e+258
1.3061e+258
-1.18205e+258
1.06992e+258
-9.6856e+257
8.76914e+257
-7.94046e+257
7.19107e+257
-6.51332e+257
5.90026e+257
-5.34563e+257
4.84377e+257
-4.38957e+257
3.97843e+257
-3.60618e+257
3.26909e+257
-2.96376e+257
2.68716e+257
-2.43652e+257
2.20938e+257
-2.00347e+257
1.8168e+257
-1.64753e+257
1.49401e+257
-1.35476e+257
1.22844e+257
-1.11383e+257
1.00983e+257
-9.15444e+256
8.29782e+256
-7.52027e+256
6.81443e+256
-6.17364e+256
5.59193e+256
-5.06393e+256
4.5848e+256
-4.15017e+256
3.75603e+256
-3.39874e+256
3.07498e+256
-2.78181e+256
2.51641e+256
-2.27614e+256
2.05861e+256
-1.86167e+256
1.68336e+256
-1.52193e+256
1.37579e+256
-1.2435e+256
1.12377e+256
-1.01541e+256
9.1737e+255
-8.28674e+255
7.4845e+255
-6.75902e+255
6.1031e+255
-5.5102e+255
4.97438e+255
-4.49024e+255
4.05289e+255
-3.65788e+255
3.30117e+255
-2.97911e+255
2.68835e+255
-2.4259e+255
2.18902e+255
-1.97525e+255
1.78234e+255
-1.60827e+255
1.4512e+255
-1.30948e+255
1.18162e+255
-1.06625e+255
9.62152e+254
-8.68225e+254
7.8347e+254
-7.06982e+254
6.37948e+254
-5.75629e+254
5.19363e+254
-4.6855e+254
4.22652e+254
-3.81185e+254
3.43713e+254
-3.09847e+254
2.79234e+254
-2.5156e+254
2.26539e+254
-2.03916e+254
1.8346e+254
-1.64965e+254
1.48243e+254
-1.33123e+254
1.19451e+254
-1.07088e+254
9.59078e+253
-8.57946e+253
7.66437e+253
-6.83596e+253
6.08549e+253
-5.40494e+253
4.78696e+253
-4.22472e+253
3.71194e+253
-3.24275e+253
2.81164e+253
-2.41342e+253
2.04319e+253
-1.69621e+253
1.36795e+253
-1.05397e+253
7.49909e+252
-4.5146e+252
1.54305e+252
1.45897e+252
-4.53549e+252
7.73131e+252
-1.10922e+253
1.46652e+253
-1.84984e+253
2.2641e+253
-2.71433e+253
3.20563e+253
-3.74315e+253
4.33204e+253
-4.97738e+253
5.68411e+253
-6.45694e+253
7.30023e+253
-8.21791e+253
9.21332e+253
-1.0289e+254
1.14468e+254
-1.26874e+254
1.40103e+254
-1.54136e+254
1.68943e+254
-1.84475e+254
2.00667e+254
-2.17441e+254
2.34697e+254
-2.52322e+254
2.70187e+254
-2.88149e+254
3.06058e+254
-3.23744e+254
3.41009e+254
-3.57648e+254
3.73449e+254
-3.88196e+254
4.01665e+254
-4.13625e+254
4.23824e+254
-4.3198e+254
4.37772e+254
-4.40817e+254
4.40651e+254
-4.3669e+254
4.28191e+254
-4.1421e+254
3.9354e+254
-3.64652e+254
3.25616e+254
-2.74015e+254
2.06843e+254
-1.20399e+254
1.01507e+253
1.29408e+254
-3.04927e+254
5.24399e+254
-7.97384e+254
1.13527e+255
-1.55157e+255
2.06227e+255
-2.68623e+255
3.44562e+255
-4.36645e+255
5.47911e+255
-6.81899e+255
8.42715e+255
1.30295e+258
-1.17906e+258
1.06705e+258
-9.65764e+257
8.7418e+257
-7.91363e+257
7.16473e+257
-6.48749e+257
5.875e+257
-5.32102e+257
4.8199e+257
-4.36653e+257
3.95628e+257
-3.58501e+257
3.24895e+257
-2.9447e+257
2.6692e+257
-2.41969e+257
2.19367e+257
-1.98889e+257
1.80331e+257
-1.63512e+257
1.48265e+257
-1.34442e+257
1.21906e+257
-1.10536e+257
1.00223e+257
-9.08659e+256
8.23759e+256
-7.46715e+256
6.76791e+256
-6.13321e+256
5.55705e+256
-5.03402e+256
4.55925e+256
-4.12838e+256
3.73747e+256
-3.38294e+256
3.06154e+256
-2.77045e+256
2.50685e+256
-2.26813e+256
2.05195e+256
-1.85617e+256
1.67888e+256
-1.51833e+256
1.37296e+256
-1.24133e+256
1.12217e+256
-1.0143e+256
9.16658e+255
-8.28297e+255
7.48343e+255
-6.7601e+255
6.10582e+255
-5.51412e+255
4.97913e+255
-4.4955e+255
4.05841e+255
-3.66345e+255
3.30663e+255
-2.98433e+255
2.69326e+255
-2.43043e+255
2.19314e+255
-1.97893e+255
1.78558e+255
-1.61108e+255
1.4536e+255
-1.31149e+255
1.18326e+255
-1.06755e+255
9.63153e+254
-8.68957e+254
7.83971e+254
-7.07293e+254
6.38108e+254
-5.75678e+254
5.19336e+254
-4.68478e+254
4.22561e+254
-3.81095e+254
3.43641e+254
-3.09802e+254
2.79225e+254
-2.51591e+254
2.26614e+254
-2.04036e+254
1.83625e+254
-1.65174e+254
1.48493e+254
-1.33413e+254
1.1978e+254
-1.07453e+254
9.63069e+253
-8.62263e+253
7.7107e+253
-6.88539e+253
6.13803e+253
-5.46066e+253
4.846e+253
-4.28733e+253
3.77843e+253
-3.31353e+253
2.88723e+253
-2.49445e+253
2.13039e+253
-1.79044e+253
1.47018e+253
-1.16531e+253
8.71607e+252
-5.84879e+252
3.00948e+252
-1.55975e+251
-2.75451e+252
5.76568e+252
-8.92236e+252
1.22707e+253
-1.58583e+253
1.97341e+253
-2.39485e+253
2.8553e+253
-3.36002e+253
3.91431e+253
-4.52346e+253
5.1927e+253
-5.92709e+253
6.73142e+253
-7.61009e+253
8.567e+253
-9.60535e+253
1.07275e+254
-1.1935e+254
1.32278e+254
-1.4605e+254
1.6064e+254
-1.76004e+254
1.92084e+254
-2.08801e+254
2.26058e+254
-2.4374e+254
2.61714e+254
-2.79826e+254
2.97907e+254
-3.15802e+254
3.33347e+254
-3.50338e+254
3.66551e+254
-3.81757e+254
3.95726e+254
-4.08231e+254
4.19047e+254
-4.27942e+254
4.34667e+254
-4.38942e+254
4.40447e+254
-4.38792e+254
4.33491e+254
-4.2392e+254
4.09275e+254
-3.88517e+254
3.60314e+254
-3.22966e+254
2.74329e+254
-2.11719e+254
1.31813e+254
-3.05274e+253
-9.71114e+253
2.57122e+254
-4.56744e+254
7.0464e+254
-1.01113e+255
1.38846e+255
-1.85113e+255
2.4162e+255
-3.10376e+255
3.93734e+255
-4.94444e+255
6.15709e+255
-7.61243e+255
-1.17343e+258
1.06185e+258
-9.60949e+257
8.69692e+257
-7.8716e+257
7.12522e+257
-6.45025e+257
5.83984e+257
-5.2878e+257
4.78851e+257
-4.33689e+257
3.92834e+257
-3.55871e+257
3.22425e+257
-2.92157e+257
2.64759e+257
-2.39955e+257
2.17497e+257
-1.97157e+257
1.78734e+257
-1.62043e+257
1.46918e+257
-1.33212e+257
1.20787e+257
-1.09522e+257
9.93078e+256
-9.00437e+256
8.16402e+256
-7.40164e+256
6.70988e+256
-6.08212e+256
5.51236e+256
-4.99517e+256
4.52569e+256
-4.09953e+256
3.71275e+256
-3.36182e+256
3.04356e+256
-2.75516e+256
2.49388e+256
-2.25715e+256
2.04269e+256
-1.8484e+256
1.6724e+256
-1.51298e+256
1.36859e+256
-1.23781e+256
1.11937e+256
-1.01213e+256
9.15025e+255
-8.27115e+255
7.47536e+255
-6.75511e+255
6.10332e+255
-5.51359e+255
4.98011e+255
-4.4976e+255
4.06129e+255
-3.66684e+255
3.3103e+255
-2.98811e+255
2.697e+255
-2.43403e+255
2.19652e+255
-1.98205e+255
1.7884e+255
-1.61358e+255
1.45578e+255
-1.31335e+255
1.1848e+255
-1.06879e+255
9.6411e+254
-8.69647e+254
7.84415e+254
-7.07519e+254
6.38148e+254
-5.75568e+254
5.19113e+254
-4.68178e+254
4.22215e+254
-3.80731e+254
3.43279e+254
-3.09461e+254
2.78916e+254
-2.51323e+254
2.26392e+254
-2.03863e+254
1.83504e+254
-1.65105e+254
1.48476e+254
-1.33446e+254
1.1986e+254
-1.07579e+254
9.6477e+253
-8.64381e+253
7.73588e+253
-6.91444e+253
6.17084e+253
-5.49719e+253
4.88626e+253
-4.3314e+253
3.82646e+253
-3.36574e+253
2.94393e+253
-2.55603e+253
2.19733e+253
-1.86334e+253
1.54971e+253
-1.25225e+253
9.66835e+252
-6.8938e+252
4.158e+252
-1.41968e+252
-1.36311e+252
4.23341e+252
-7.23554e+252
1.04153e+253
-1.38204e+253
1.74999e+253
-2.15051e+253
2.58886e+253
-3.07046e+253
3.60086e+253
-4.18564e+253
4.83039e+253
-5.54061e+253
6.32161e+253
-7.17839e+253
8.11551e+253
-9.13691e+253
1.02457e+254
-1.14442e+254
1.27334e+254
-1.41129e+254
1.5581e+254
-1.7134e+254
1.87665e+254
-2.0471e+254
2.2238e+254
-2.40556e+254
2.59102e+254
-2.7786e+254
2.96645e+254
-3.15256e+254
3.33529e+254
-3.51297e+254
3.68343e+254
-3.84419e+254
3.99271e+254
-4.12653e+254
4.24328e+254
-4.34075e+254
4.41681e+254
-4.46922e+254
4.49564e+254
-4.49346e+254
4.45957e+254
-4.39009e+254
4.27996e+254
-4.12254e+254
3.90907e+254
-3.62813e+254
3.26493e+254
-2.80058e+254
2.21124e+254
-1.46714e+254
5.31568e+253
6.40411e+253
-2.10327e+254
3.92262e+254
-6.17702e+254
8.96009e+254
-1.23829e+255
1.65769e+255
-2.16968e+255
2.79244e+255
-3.5473e+255
4.45913e+255
-5.55693e+255
6.87432e+255
1.05404e+258
-9.53807e+257
8.63148e+257
-7.81145e+257
7.06977e+257
-6.39899e+257
5.79234e+257
-5.24372e+257
4.74755e+257
-4.29881e+257
3.89294e+257
-3.52581e+257
3.19369e+257
-2.89321e+257
2.62131e+257
-2.37524e+257
2.15251e+257
-1.95088e+257
1.76831e+257
-1.60297e+257
1.4532e+257
-1.31752e+257
1.19459e+257
-1.08317e+257
9.82173e+256
-8.90605e+256
8.07569e+256
-7.32258e+256
6.6394e+256
-6.01957e+256
5.45712e+256
-4.94667e+256
4.48334e+256