/*--------------------------------*- C++ -*----------------------------------*\
  =========                 |
  \\      /  F ield         | OpenFOAM: The Open Source CFD Toolbox
   \\    /   O peration     | Website:  https://openfoam.org
    \\  /    A nd           | Version:  9
     \\/     M anipulation  |
\*---------------------------------------------------------------------------*/
FoamFile
{
    format      ascii;
    class       volVectorField;
    location    "200";
    object      U;
}
// * * * * * * * * * * * * * * * * * * * * * * * * * * * * * * * * * * * * * //

dimensions      [0 1 -1 0 0 0 0];

internalField   nonuniform List<vector> 
12225
(
(9.74866 0.0450265 0)
(9.25445 0.0800289 0)
(8.74912 0.0887441 0)
(8.24655 0.0904177 0)
(7.76565 0.0888011 0)
(7.31154 0.0848865 0)
(6.88367 0.0796257 0)
(6.48268 0.0735152 0)
(6.11056 0.0666609 0)
(5.76974 0.0589828 0)
(5.463 0.050318 0)
(5.19382 0.0404444 0)
(4.96637 0.0291343 0)
(4.78572 0.0160953 0)
(4.65722 0.0011357 0)
(4.58787 -0.0173146 0)
(4.59189 -0.0387185 0)
(4.65299 -0.0851721 0)
(10.1141 0.0686268 0)
(10.3394 0.110906 0)
(10.4956 0.118739 0)
(10.59 0.124376 0)
(10.6399 0.129592 0)
(10.6535 0.133268 0)
(10.6357 0.135699 0)
(10.5918 0.136971 0)
(10.5274 0.136802 0)
(10.4477 0.134781 0)
(10.3576 0.130448 0)
(10.262 0.123255 0)
(10.1663 0.112586 0)
(10.0762 0.0976992 0)
(9.9971 0.0778028 0)
(9.93695 0.0507503 0)
(9.89685 0.0155581 0)
(9.88801 -0.0472218 0)
(10.0097 0.0407251 0)
(10.0599 0.0587495 0)
(10.1152 0.06043 0)
(10.1723 0.0681287 0)
(10.237 0.0779316 0)
(10.3087 0.0864524 0)
(10.3835 0.0935944 0)
(10.4589 0.099388 0)
(10.5335 0.10345 0)
(10.6063 0.10526 0)
(10.6762 0.104249 0)
(10.7427 0.0997141 0)
(10.8055 0.0908214 0)
(10.8647 0.0765571 0)
(10.9208 0.0556725 0)
(10.9747 0.0259255 0)
(11.024 -0.0145261 0)
(11.068 -0.0760328 0)
(10.0061 0.0302014 0)
(10.0354 0.0556084 0)
(10.0637 0.0660249 0)
(10.0854 0.075886 0)
(10.1071 0.0838502 0)
(10.1327 0.0885668 0)
(10.1622 0.0910009 0)
(10.1955 0.0918265 0)
(10.2331 0.0909949 0)
(10.2752 0.0881523 0)
(10.3219 0.0828357 0)
(10.3727 0.0744274 0)
(10.4271 0.0621619 0)
(10.4845 0.0450608 0)
(10.5439 0.0219486 0)
(10.6044 -0.00914471 0)
(10.6619 -0.0489492 0)
(10.7187 -0.102571 0)
(10.0045 0.0245578 0)
(10.0289 0.0508706 0)
(10.0554 0.0606676 0)
(10.0764 0.0671175 0)
(10.096 0.0724813 0)
(10.1174 0.0759168 0)
(10.1404 0.0777145 0)
(10.1645 0.0781431 0)
(10.1904 0.0769396 0)
(10.2184 0.0735998 0)
(10.2489 0.0675787 0)
(10.2819 0.0582441 0)
(10.3176 0.0448541 0)
(10.356 0.0265012 0)
(10.3964 0.00214162 0)
(10.4388 -0.0297452 0)
(10.48 -0.0690965 0)
(10.5229 -0.120849 0)
(10.0032 0.0199169 0)
(10.0229 0.0439465 0)
(10.0468 0.0537438 0)
(10.0677 0.0600498 0)
(10.0877 0.0657933 0)
(10.1093 0.0697502 0)
(10.1325 0.0716025 0)
(10.1568 0.0715385 0)
(10.1825 0.0694209 0)
(10.2098 0.0648465 0)
(10.2389 0.0573395 0)
(10.2697 0.0463387 0)
(10.3023 0.0311698 0)
(10.3364 0.0110175 0)
(10.3716 -0.0150086 0)
(10.4076 -0.0480651 0)
(10.4418 -0.0877515 0)
(10.4775 -0.139134 0)
(10.0024 0.0160923 0)
(10.0182 0.0375093 0)
(10.0395 0.0477262 0)
(10.0596 0.0539065 0)
(10.0791 0.0589024 0)
(10.0998 0.0618797 0)
(10.1222 0.0625368 0)
(10.1458 0.0611448 0)
(10.1706 0.0576764 0)
(10.1969 0.0517752 0)
(10.2247 0.0429638 0)
(10.2539 0.0306917 0)
(10.2843 0.0143124 0)
(10.3156 -0.006922 0)
(10.3472 -0.0337506 0)
(10.3787 -0.0670979 0)
(10.408 -0.106437 0)
(10.4381 -0.157039 0)
(10.0018 0.0129961 0)
(10.0147 0.0315577 0)
(10.0334 0.0415621 0)
(10.0525 0.0472135 0)
(10.0712 0.0512516 0)
(10.0911 0.0534038 0)
(10.1125 0.0533517 0)
(10.135 0.051221 0)
(10.1586 0.0469449 0)
(10.1833 0.0401654 0)
(10.2092 0.030413 0)
(10.2361 0.0171726 0)
(10.2636 -0.000131876 0)
(10.2915 -0.0221371 0)
(10.3189 -0.0494002 0)
(10.3455 -0.0827287 0)
(10.3694 -0.121449 0)
(10.3931 -0.170965 0)
(10.0013 0.0104478 0)
(10.0119 0.0260179 0)
(10.0284 0.0353229 0)
(10.0463 0.0404211 0)
(10.0641 0.0436399 0)
(10.083 0.0450338 0)
(10.1033 0.0442478 0)
(10.1246 0.0412687 0)
(10.1468 0.0360299 0)
(10.1698 0.0282349 0)
(10.1936 0.0174756 0)
(10.2179 0.00330418 0)
(10.2424 -0.014768 0)
(10.2666 -0.0372357 0)
(10.2897 -0.0645397 0)
(10.3113 -0.0973491 0)
(10.3298 -0.134877 0)
(10.3469 -0.182526 0)
(10.001 0.00830578 0)
(10.0098 0.0209031 0)
(10.0242 0.029152 0)
(10.0407 0.0335956 0)
(10.0577 0.0359668 0)
(10.0755 0.0365057 0)
(10.0945 0.0349121 0)
(10.1144 0.0311085 0)
(10.135 0.0250305 0)
(10.1562 0.0164371 0)
(10.1778 0.00497357 0)
(10.1994 -0.00974711 0)
(10.2208 -0.0281168 0)
(10.2412 -0.050522 0)
(10.2601 -0.077291 0)
(10.2768 -0.108949 0)
(10.29 -0.144596 0)
(10.3007 -0.18946 0)
(10.0008 0.00646804 0)
(10.0082 0.0162093 0)
(10.0207 0.0231415 0)
(10.0358 0.0267854 0)
(10.0517 0.0282826 0)
(10.0683 0.0279551 0)
(10.086 0.0255871 0)
(10.1044 0.0210569 0)
(10.1233 0.0142824 0)
(10.1425 0.0050629 0)
(10.1617 -0.00689552 0)
(10.1806 -0.0219022 0)
(10.1987 -0.0402411 0)
(10.2155 -0.0622117 0)
(10.2302 -0.0879904 0)
(10.2423 -0.117969 0)
(10.2505 -0.151121 0)
(10.2551 -0.192414 0)
(10.0007 0.00496874 0)
(10.007 0.012205 0)
(10.018 0.0177755 0)
(10.0318 0.0205781 0)
(10.0465 0.0212704 0)
(10.062 0.0201663 0)
(10.0784 0.0171215 0)
(10.0953 0.0119932 0)
(10.1126 0.00468961 0)
(10.1298 -0.00494948 0)
(10.1468 -0.0171512 0)
(10.1631 -0.0321276 0)
(10.1783 -0.0501035 0)
(10.1917 -0.0712474 0)
(10.2028 -0.0956389 0)
(10.2108 -0.12353 0)
(10.2149 -0.153787 0)
(10.2147 -0.19111 0)
(10.0006 0.0036609 0)
(10.006 0.00855573 0)
(10.0157 0.0126729 0)
(10.0281 0.0145453 0)
(10.0417 0.0144354 0)
(10.056 0.0125891 0)
(10.071 0.00891275 0)
(10.0865 0.00327117 0)
(10.102 -0.00442833 0)
(10.1173 -0.0143055 0)
(10.1321 -0.0265114 0)
(10.1458 -0.0412027 0)
(10.1582 -0.0585124 0)
(10.1685 -0.0785133 0)
(10.1762 -0.101177 0)
(10.1806 -0.126638 0)
(10.181 -0.153666 0)
(10.1767 -0.186639 0)
(10.0005 0.00231849 0)
(10.0051 0.00471201 0)
(10.0134 0.00712992 0)
(10.0244 0.00786306 0)
(10.0366 0.00684033 0)
(10.0494 0.00419692 0)
(10.0628 -0.000120459 0)
(10.0765 -0.00622869 0)
(10.09 -0.0142012 0)
(10.103 -0.02412 0)
(10.1153 -0.0360606 0)
(10.1263 -0.0501163 0)
(10.1355 -0.0662984 0)
(10.1426 -0.0846036 0)
(10.1468 -0.104871 0)
(10.1476 -0.127125 0)
(10.1446 -0.150065 0)
(10.1366 -0.177691 0)
(10.0004 0.000959388 0)
(10.0042 0.000766945 0)
(10.0112 0.00129629 0)
(10.0206 0.000699526 0)
(10.0311 -0.00134273 0)
(10.0423 -0.00480471 0)
(10.0538 -0.00972567 0)
(10.0654 -0.0161852 0)
(10.0766 -0.0242383 0)
(10.0872 -0.0339072 0)
(10.0967 -0.0452189 0)
(10.1047 -0.0581513 0)
(10.1109 -0.0726542 0)
(10.1146 -0.088597 0)
(10.1156 -0.105749 0)
(10.1132 -0.123998 0)
(10.1073 -0.142072 0)
(10.0964 -0.163524 0)
(10.0003 -0.000387676 0)
(10.0034 -0.00316969 0)
(10.0091 -0.00464109 0)
(10.0168 -0.00670321 0)
(10.0256 -0.00982589 0)
(10.0348 -0.0140739 0)
(10.0443 -0.0194863 0)
(10.0536 -0.0261054 0)
(10.0623 -0.0339512 0)
(10.0703 -0.0429987 0)
(10.077 -0.0532037 0)
(10.0821 -0.0644717 0)
(10.0852 -0.076667 0)
(10.0861 -0.0895848 0)
(10.0843 -0.10292 0)
(10.0794 -0.116502 0)
(10.0717 -0.129108 0)
(10.0591 -0.14389 0)
(10.0003 -0.00168568 0)
(10.0026 -0.00695583 0)
(10.007 -0.0104313 0)
(10.0131 -0.0139955 0)
(10.02 -0.0181751 0)
(10.0273 -0.0231002 0)
(10.0345 -0.0288071 0)
(10.0415 -0.0353146 0)
(10.0478 -0.0425946 0)
(10.0531 -0.050593 0)
(10.0572 -0.0591974 0)
(10.0598 -0.0682765 0)
(10.0605 -0.0776211 0)
(10.0591 -0.0870086 0)
(10.0555 -0.0960961 0)
(10.0493 -0.104715 0)
(10.041 -0.111764 0)
(10.0284 -0.119989 0)
(10.0002 -0.00289045 0)
(10.0019 -0.0104249 0)
(10.0052 -0.0157978 0)
(10.0097 -0.0207896 0)
(10.0148 -0.0259214 0)
(10.0202 -0.0313469 0)
(10.0253 -0.0371052 0)
(10.0301 -0.0431906 0)
(10.0342 -0.0495514 0)
(10.0374 -0.0560995 0)
(10.0394 -0.062703 0)
(10.04 -0.0691958 0)
(10.0391 -0.0753683 0)
(10.0365 -0.0809906 0)
(10.0323 -0.0857659 0)
(10.026 -0.0895384 0)
(10.0186 -0.0914292 0)
(10.0075 -0.0937102 0)
(10.0002 -0.0039821 0)
(10.0013 -0.0134357 0)
(10.0037 -0.0204717 0)
(10.007 -0.0266721 0)
(10.0107 -0.0325168 0)
(10.0144 -0.0381822 0)
(10.018 -0.0437112 0)
(10.0211 -0.049099 0)
(10.0235 -0.0542859 0)
(10.0252 -0.0591948 0)
(10.026 -0.0636993 0)
(10.0258 -0.0676609 0)
(10.0244 -0.0709009 0)
(10.022 -0.0732454 0)
(10.0185 -0.0744693 0)
(10.0138 -0.074481 0)
(10.0087 -0.0726348 0)
(10.0006 -0.0707395 0)
(10.0002 -0.00485496 0)
(10.0012 -0.0157104 0)
(10.0033 -0.0239833 0)
(10.0062 -0.0310053 0)
(10.0093 -0.0372536 0)
(10.0123 -0.0429398 0)
(10.0151 -0.0481478 0)
(10.0175 -0.0528691 0)
(10.0194 -0.0570847 0)
(10.0207 -0.0607221 0)
(10.0212 -0.0637081 0)
(10.0211 -0.0659182 0)
(10.0202 -0.067246 0)
(10.0186 -0.0675518 0)
(10.0164 -0.0667089 0)
(10.0134 -0.0646569 0)
(10.0105 -0.0609588 0)
(10.0052 -0.0570335 0)
(10.0002 -0.00557001 0)
(10.0013 -0.0174999 0)
(10.0037 -0.0266612 0)
(10.0068 -0.0341792 0)
(10.0098 -0.0406117 0)
(10.0127 -0.0462492 0)
(10.0153 -0.0511951 0)
(10.0176 -0.0554628 0)
(10.0194 -0.0590683 0)
(10.0207 -0.0619829 0)
(10.0215 -0.0641668 0)
(10.0217 -0.0655311 0)
(10.0215 -0.0660041 0)
(10.0209 -0.0654867 0)
(10.0199 -0.0638973 0)
(10.0185 -0.0612081 0)
(10.0175 -0.0570958 0)
(10.0144 -0.0527297 0)
(10.0003 -0.00636196 0)
(10.0018 -0.0194243 0)
(10.0049 -0.0293307 0)
(10.0085 -0.0371308 0)
(10.0118 -0.0436108 0)
(10.0148 -0.049178 0)
(10.0176 -0.0539086 0)
(10.0199 -0.0578289 0)
(10.0219 -0.0609602 0)
(10.0234 -0.0633234 0)
(10.0245 -0.0648791 0)
(10.0252 -0.0655999 0)
(10.0256 -0.0654185 0)
(10.0258 -0.0643115 0)
(10.0258 -0.0622017 0)
(10.0255 -0.059126 0)
(10.0257 -0.054814 0)
(10.024 -0.0502456 0)
(10.0004 -0.00735944 0)
(10.0027 -0.0217505 0)
(10.0069 -0.03225 0)
(10.0113 -0.0400977 0)
(10.0151 -0.0464798 0)
(10.0184 -0.0518846 0)
(10.0214 -0.0563969 0)
(10.0241 -0.0600882 0)
(10.0264 -0.0630418 0)
(10.0284 -0.0652734 0)
(10.03 -0.066751 0)
(10.0313 -0.0674309 0)
(10.0324 -0.0672754 0)
(10.0333 -0.0662511 0)
(10.0343 -0.0643252 0)
(10.035 -0.0615186 0)
(10.0365 -0.0576496 0)
(10.0362 -0.0535102 0)
(10.0006 -0.00871082 0)
(10.0042 -0.0246593 0)
(10.0101 -0.0354608 0)
(10.0155 -0.0431885 0)
(10.0198 -0.0495145 0)
(10.0234 -0.0547378 0)
(10.0267 -0.0588161 0)
(10.0296 -0.061913 0)
(10.0321 -0.0642215 0)
(10.0342 -0.0658159 0)
(10.0361 -0.0667052 0)
(10.0379 -0.066872 0)
(10.0395 -0.0663154 0)
(10.041 -0.0650124 0)
(10.0426 -0.0629576 0)
(10.0441 -0.0601604 0)
(10.0464 -0.0565044 0)
(10.0468 -0.0525943 0)
(10.001 -0.0106263 0)
(10.0067 -0.0283444 0)
(10.0145 -0.0387808 0)
(10.0209 -0.0459099 0)
(10.0257 -0.0522336 0)
(10.0299 -0.0578078 0)
(10.0338 -0.0623602 0)
(10.0373 -0.0659791 0)
(10.0402 -0.0687929 0)
(10.0427 -0.0708287 0)
(10.0451 -0.0720786 0)
(10.0472 -0.072549 0)
(10.0493 -0.0722573 0)
(10.0513 -0.0712228 0)
(10.0534 -0.0694495 0)
(10.0555 -0.0669843 0)
(10.0584 -0.0637415 0)
(10.0597 -0.0602437 0)
(10.0016 -0.0132822 0)
(10.0105 -0.0330701 0)
(10.0209 -0.0429982 0)
(10.028 -0.0489343 0)
(10.0325 -0.05369 0)
(10.0366 -0.0574713 0)
(10.0405 -0.0604131 0)
(10.044 -0.0628166 0)
(10.0469 -0.06479 0)
(10.0495 -0.0662871 0)
(10.052 -0.0672507 0)
(10.0543 -0.0676354 0)
(10.0565 -0.0674346 0)
(10.0588 -0.0666301 0)
(10.0613 -0.0652066 0)
(10.0637 -0.0631842 0)
(10.067 -0.0604988 0)
(10.0686 -0.0575167 0)
(10.0026 -0.0168436 0)
(10.0153 -0.0369439 0)
(10.0285 -0.0473966 0)
(10.0364 -0.0561771 0)
(10.0412 -0.0636599 0)
(10.0456 -0.0689813 0)
(10.0497 -0.0725966 0)
(10.0535 -0.0751629 0)
(10.057 -0.0769519 0)
(10.0606 -0.078047 0)
(10.0644 -0.0785008 0)
(10.0684 -0.0783699 0)
(10.0726 -0.0776998 0)
(10.077 -0.076517 0)
(10.0817 -0.0748368 0)
(10.0866 -0.0726881 0)
(10.0923 -0.0700507 0)
(10.0961 -0.0671185 0)
(10.0044 -0.0242616 0)
(10.0257 -0.037687 0)
(10.0472 -0.0380033 0)
(10.0653 -0.0414982 0)
(10.0845 -0.0471714 0)
(10.1061 -0.0524254 0)
(10.1288 -0.0570053 0)
(10.1519 -0.061122 0)
(10.175 -0.0647098 0)
(10.1979 -0.067644 0)
(10.2201 -0.0698598 0)
(10.2415 -0.0713571 0)
(10.2619 -0.0721268 0)
(10.2809 -0.0721843 0)
(10.2988 -0.0715456 0)
(10.3152 -0.0702813 0)
(10.331 -0.0683619 0)
(10.3434 -0.0661645 0)
(10.0609 -0.0464409 0)
(10.1977 -0.0797893 0)
(10.3068 -0.0860206 0)
(10.3883 -0.0895108 0)
(10.4516 -0.0929729 0)
(10.4998 -0.0954576 0)
(10.5335 -0.0971972 0)
(10.5543 -0.0985203 0)
(10.5644 -0.0994394 0)
(10.5655 -0.099878 0)
(10.5595 -0.0998056 0)
(10.5476 -0.0992175 0)
(10.5313 -0.0981026 0)
(10.5118 -0.0964716 0)
(10.4903 -0.0943458 0)
(10.4673 -0.091807 0)
(10.4445 -0.0888161 0)
(10.4203 -0.0858719 0)
(9.86221 -0.0317515 0)
(9.58758 -0.0608087 0)
(9.29718 -0.0708085 0)
(9.00042 -0.0753424 0)
(8.7118 -0.0774027 0)
(8.4358 -0.0775253 0)
(8.17218 -0.0763777 0)
(7.92091 -0.0744803 0)
(7.68256 -0.0720904 0)
(7.45749 -0.0693429 0)
(7.24579 -0.0663454 0)
(7.04736 -0.0631817 0)
(6.86212 -0.0599002 0)
(6.68992 -0.0565453 0)
(6.5306 -0.0531591 0)
(6.38351 -0.0497989 0)
(6.24912 -0.046466 0)
(6.12375 -0.0434386 0)
(-0.157109 0.311011 -1.8304e-19)
(-0.501533 0.361739 9.47634e-20)
(-0.829056 0.300871 0)
(-1.14928 0.165937 0)
(-1.49359 -0.027082 0)
(-1.85121 -0.232295 -4.10775e-20)
(-2.05177 -0.39731 0)
(-1.89274 -0.539157 0)
(-1.46955 -0.742933 0)
(-0.816974 -0.957207 0)
(-0.0636449 -1.12826 5.92286e-20)
(0.760437 -1.1835 0)
(1.68807 -1.15109 0)
(2.63965 -1.07897 0)
(3.53477 -0.97639 0)
(4.33713 -0.851183 1.58143e-20)
(5.03 -0.712002 0)
(5.60334 -0.565354 0)
(6.05217 -0.413535 0)
(6.36736 -0.257524 0)
(6.55362 -0.0913093 0)
(6.58892 0.0944494 0)
(6.45473 0.293713 0)
(6.1565 0.487662 2.71513e-20)
(5.69727 0.656136 -2.85392e-20)
(5.08929 0.778954 3.05978e-20)
(4.35823 0.836992 3.39195e-20)
(3.54367 0.816246 0)
(2.69969 0.712857 0)
(1.88846 0.537821 -6.7727e-20)
(1.16692 0.318705 -1.03792e-19)
(0.594482 0.0773385 0)
(0.181783 -0.077125 0)
(0.00161736 0.178642 -3.53859e-19)
(-0.367755 0.256904 0)
(-0.817312 0.204199 0)
(-1.33155 0.109011 9.6329e-20)
(-1.82305 -0.00662764 0)
(-2.14473 -0.13719 8.81522e-20)
(-2.20896 -0.266112 1.81552e-19)
(-2.02731 -0.386621 0)
(-1.64211 -0.55914 0)
(-1.10735 -0.754649 0)
(-0.531424 -0.852746 0)
(0.142509 -0.722522 0)
(0.663033 -0.451316 2.36028e-19)
(0.886596 -0.201477 1.97793e-19)
(1.24893 -0.274516 1.53297e-19)
(1.48262 -0.477134 0)
(1.54725 -0.818128 -1.38542e-19)
(1.23232 -0.843456 0)
(0.911698 -0.278025 1.99967e-19)
(-0.256243 0.661268 1.15786e-19)
(-1.72607 1.02799 0)
(-3.09226 1.13484 0)
(-4.39787 1.11296 0)
(-5.5957 1.01981 4.986e-20)
(-6.65794 0.890299 0)
(-7.57306 0.746647 0)
(-8.34042 0.602747 0)
(-8.96581 0.467053 0)
(-9.45797 0.344624 0)
(-9.82619 0.23834 0)
(-10.0798 0.1491 0)
(-10.2276 0.0766988 0)
(-10.2809 0.0202111 -8.26472e-20)
(-10.2577 -0.0234833 0)
(-10.1755 -0.0591335 0)
(-10.0391 -0.0902039 8.25523e-20)
(-9.85359 -0.118099 8.12827e-20)
(-9.62269 -0.143333 0)
(-9.34987 -0.166093 -7.69203e-20)
(-9.03853 -0.186399 7.38266e-20)
(-8.69221 -0.204195 0)
(-8.31472 -0.219367 -6.578e-20)
(-7.91024 -0.231788 0)
(-7.48333 -0.241328 0)
(-7.03887 -0.247898 4.90088e-20)
(-6.58197 -0.251457 0)
(-6.11781 -0.252052 -3.47673e-20)
(-5.65145 -0.24981 0)
(-5.18765 -0.244972 1.8098e-20)
(-4.7308 -0.237863 8.78104e-21)
(-4.28476 -0.228888 -1.28521e-21)
(-3.85291 -0.218452 -2.4442e-20)
(-3.43804 -0.206893 4.8407e-20)
(-3.04238 -0.194384 0)
(-2.66745 -0.180917 0)
(-2.31419 -0.166342 0)
(-1.98291 -0.150559 1.80551e-19)
(-1.67348 -0.133764 2.30555e-19)
(-1.38566 -0.116665 -2.93777e-19)
(-1.11901 -0.100708 0)
(-0.873343 -0.0876773 4.9319e-19)
(-0.648966 -0.0792905 6.67528e-19)
(-0.444404 -0.0786224 9.59212e-19)
(-0.263572 -0.0885904 0)
(-0.0824257 -0.103979 0)
(0.124833 -0.105527 0)
(0.324139 -0.0948062 8.89163e-19)
(0.503129 -0.0821608 0)
(0.66646 -0.0713814 0)
(0.814894 -0.0624487 -4.88501e-19)
(0.950102 -0.0549163 0)
(1.07351 -0.0484321 0)
(1.1862 -0.042747 -3.59202e-19)
(1.28908 -0.0376872 0)
(1.38289 -0.0331298 0)
(1.46826 -0.0289858 2.95817e-19)
(1.54574 -0.0251877 2.81589e-19)
(1.61581 -0.0216833 0)
(1.67888 -0.0184188 -2.59568e-19)
(1.73531 -0.0153509 0)
(1.7854 -0.0124666 2.43861e-19)
(1.8294 -0.00974277 0)
(1.86749 -0.00702359 2.32837e-19)
(1.89965 -0.00421365 2.28793e-19)
(1.92575 -0.00162611 0)
(1.94627 0.00103428 0)
(1.96062 0.00556066 0)
(1.96311 0.0125337 0)
(1.9524 0.0207744 0)
(1.92741 0.0293952 0)
(1.88736 0.0378164 0)
(1.83187 0.0454553 2.36827e-19)
(1.761 0.0517467 -2.46195e-19)
(1.67535 0.0561897 0)
(1.57615 0.0584482 0)
(1.4653 0.0584009 0)
(1.34531 0.0561634 0)
(1.21907 0.0520947 -7.02991e-19)
(1.08943 0.0468179 0)
(0.959023 0.0410007 8.79786e-19)
(0.830937 0.0345493 -1.00236e-18)
(0.711041 0.0264354 0)
(0.604033 0.0184986 0)
(0.496498 0.0196467 0)
(0.343223 0.0317457 2.01529e-18)
(0.215663 0.0123441 2.31444e-18)
(0.33562 -0.0859659 0)
(0.529237 -0.141121 1.68831e-18)
(0.303512 0.0105046 1.73247e-18)
(-0.230168 0.248208 -3.02107e-18)
(0.412663 -0.180048 0)
(1.03652 -0.270646 0)
(1.52156 -0.383798 -6.16862e-19)
(2.02493 -0.126357 0)
(-0.929799 0.762297 0)
(-3.65313 0.84644 0)
(-5.65341 0.584492 0)
(-6.95575 0.325456 -1.29511e-19)
(-7.64008 0.142197 -1.74294e-19)
(-7.86381 0.0308443 0)
(-7.78975 -0.0329466 -2.02806e-19)
(-7.53023 -0.0747537 0)
(-7.10887 -0.105153 0)
(-6.54811 -0.123732 -1.43356e-19)
(-5.87426 -0.130795 0)
(-5.11593 -0.130728 -2.91917e-20)
(-4.30204 -0.13062 0)
(-3.4512 -0.139332 0)
(-2.59633 -0.164317 3.7946e-19)
(-1.761 -0.228403 0)
(-0.908441 -0.326248 1.2359e-18)
(0.158386 -0.388925 0)
(1.41818 -0.359477 0)
(2.50218 -0.307347 0)
(3.4838 -0.263212 -4.02791e-19)
(4.35168 -0.223638 0)
(5.10313 -0.185313 2.79457e-19)
(5.73586 -0.150626 0)
(6.25374 -0.121886 0)
(6.66542 -0.0858118 0)
(6.93415 -0.0240486 0)
(6.96557 0.0529481 0)
(6.76501 0.124003 0)
(6.35222 0.179731 0)
(5.73076 0.216215 -2.47562e-19)
(5.01392 0.230513 0)
(3.96841 0.221711 0)
(-0.0168575 0.839441 4.47725e-19)
(-0.1894 0.911444 -3.20558e-19)
(-0.321663 0.921645 0)
(-0.43848 0.838999 1.8448e-19)
(-0.493634 0.639676 0)
(-0.262257 0.346857 1.93814e-19)
(0.324032 0.0437365 -3.24245e-19)
(0.8039 -0.604857 -1.30776e-19)
(1.38012 -1.39444 0)
(2.09376 -2.06889 -4.74771e-20)
(2.89363 -2.51553 -1.25285e-20)
(3.72505 -2.72439 0)
(4.51485 -2.72998 0)
(5.22977 -2.5883 0)
(5.86637 -2.35048 0)
(6.42228 -2.05562 -1.01363e-20)
(6.89542 -1.73087 0)
(7.28605 -1.39309 3.81647e-20)
(7.59489 -1.05068 0)
(7.82742 -0.706542 0)
(7.97973 -0.359046 -4.78899e-20)
(8.07118 -0.000698585 0)
(8.10999 0.372116 4.95367e-20)
(8.08219 0.75366 -1.98893e-20)
(7.96888 1.1332 1.937e-20)
(7.74567 1.49147 -1.88819e-20)
(7.3872 1.79851 -1.8655e-20)
(6.87443 2.01655 0)
(6.20457 2.10879 0)
(5.39605 2.05377 2.25656e-20)
(4.48864 1.85748 -3.27283e-20)
(3.54738 1.54612 0)
(2.61498 1.19732 0)
(1.79462 0.969665 6.23001e-20)
(1.17496 0.918683 0)
(0.706375 0.989789 0)
(0.266483 1.01202 -1.75018e-19)
(-0.0448246 0.809936 0)
(0.0922127 0.405502 5.08277e-19)
(0.119373 0.105848 -1.8541e-18)
(0.0693005 -0.185734 0)
(0.632928 -1.05291 0)
(1.29847 -1.59641 -2.40011e-19)
(1.81184 -1.62153 -1.98771e-19)
(2.10389 -1.24375 -1.98152e-19)
(2.23776 -0.771483 1.11679e-19)
(2.13805 -0.647893 -1.05342e-19)
(1.88411 -0.81473 -3.83831e-19)
(1.0912 -0.0809251 2.73858e-19)
(-1.06912 1.29598 7.39562e-20)
(-2.80247 2.07312 0)
(-4.36615 2.57795 -3.18985e-20)
(-5.82264 2.80727 3.79558e-20)
(-6.99606 2.75228 0)
(-7.92831 2.54726 0)
(-8.65529 2.26456 0)
(-9.2055 1.95203 -3.08088e-20)
(-9.6094 1.64027 0)
(-9.89755 1.3467 1.06334e-19)
(-10.0972 1.07922 0)
(-10.2307 0.839652 1.31896e-19)
(-10.3151 0.626701 0)
(-10.3633 0.43807 -1.53083e-19)
(-10.3838 0.271392 0)
(-10.3811 0.124836 1.67204e-19)
(-10.3541 -0.00300738 -8.78488e-20)
(-10.2913 -0.11449 0)
(-10.1802 -0.213363 -1.68787e-19)
(-10.022 -0.302711 -8.11639e-20)
(-9.81791 -0.384068 -7.96846e-20)
(-9.57031 -0.458086 0)
(-9.28192 -0.524981 -7.87756e-20)
(-8.95581 -0.584693 -7.17462e-20)
(-8.59531 -0.636996 0)
(-8.20412 -0.681529 6.35733e-20)
(-7.78638 -0.717887 -1.20579e-19)
(-7.34665 -0.74567 0)
(-6.88989 -0.764606 -4.7039e-20)
(-6.42135 -0.774609 0)
(-5.94634 -0.775864 1.02341e-19)
(-5.47004 -0.768833 0)
(-4.99734 -0.754276 -5.40668e-20)
(-4.53267 -0.733191 -8.49475e-21)
(-4.07989 -0.706759 5.80904e-22)
(-3.64218 -0.676211 -1.97849e-20)
(-3.22201 -0.64271 4.2648e-20)
(-2.82115 -0.607183 0)
(-2.44066 -0.570267 0)
(-2.0811 -0.532301 0)
(-1.74277 -0.493509 -5.19946e-19)
(-1.42578 -0.454229 -2.24817e-19)
(-1.13052 -0.415112 2.9104e-19)
(-0.856478 -0.377788 0)
(-0.602978 -0.343516 5.12845e-19)
(-0.370396 -0.317196 -7.51403e-19)
(-0.143901 -0.302757 -1.0068e-18)
(0.103188 -0.304576 0)
(0.341594 -0.303406 0)
(0.544449 -0.287238 0)
(0.726512 -0.263443 -4.3951e-19)
(0.896385 -0.23881 0)
(1.05553 -0.21642 7.01467e-19)
(1.20377 -0.196477 9.64193e-19)
(1.34148 -0.178638 -5.94261e-19)
(1.46923 -0.162552 0)
(1.58763 -0.147937 -2.60419e-19)
(1.6973 -0.134575 0)
(1.7988 -0.122297 -4.70651e-19)
(1.89266 -0.110966 2.24722e-19)
(1.97939 -0.100466 2.15947e-19)
(2.05941 -0.0906986 0)
(2.13311 -0.0815731 6.06135e-19)
(2.20087 -0.0730103 -3.92207e-19)
(2.26299 -0.0649297 -1.91237e-19)
(2.31971 -0.0572427 0)
(2.37118 -0.0498343 -1.82924e-19)
(2.4177 -0.0426113 -5.38484e-19)
(2.45958 -0.0355479 0)
(2.49607 -0.0282613 -3.48919e-19)
(2.52727 -0.0197421 -3.45372e-19)
(2.5579 -0.00960165 -3.40598e-19)
(2.58865 0.0017958 0)
(2.6186 0.0143662 0)
(2.64645 0.0280984 0)
(2.67025 0.0429292 1.59578e-19)
(2.68743 0.0586585 1.5822e-19)
(2.69503 0.0748458 0)
(2.68989 0.0908034 3.13154e-19)
(2.66904 0.105644 3.14733e-19)
(2.6301 0.118472 0)
(2.57143 0.128581 3.26089e-19)
(2.49256 0.135466 6.70891e-19)
(2.39467 0.138573 -3.49358e-19)
(2.28067 0.137414 -3.6587e-19)
(2.15285 0.132955 0)
(2.00898 0.128821 0)
(1.84791 0.127709 0)
(1.69665 0.11688 -4.78518e-19)
(1.61635 0.0627781 5.29865e-19)
(1.58846 -0.0223383 1.14289e-18)
(1.41017 0.00228819 -6.7719e-19)
(0.799247 0.218705 6.57565e-19)
(1.00946 0.0722375 4.8032e-19)
(1.82133 -0.608481 0)
(2.22985 -0.769476 0)
(2.10003 0.183602 -3.43529e-19)
(-1.08941 1.77589 0)
(-4.31214 2.22054 0)
(-5.90064 1.80758 1.58958e-20)
(-6.57268 1.18464 0)
(-6.80287 0.644263 -1.80996e-19)
(-6.85859 0.251549 1.92183e-19)
(-6.83635 -0.0121517 0)
(-6.70641 -0.190288 -2.46378e-19)
(-6.40955 -0.331804 0)
(-5.9564 -0.45236 0)
(-5.36232 -0.546385 1.5629e-19)
(-4.65422 -0.609444 -2.12387e-19)
(-3.8612 -0.645036 3.41437e-20)
(-3.01164 -0.66399 0)
(-2.11178 -0.680812 0)
(-1.19728 -0.719382 4.50629e-19)
(-0.105257 -0.781914 0)
(1.19216 -0.872763 4.01757e-19)
(2.28574 -0.90174 0)
(3.27203 -0.855613 0)
(4.21119 -0.771433 0)
(5.09068 -0.683624 2.68246e-19)
(5.88412 -0.595209 0)
(6.58104 -0.506186 -2.10111e-19)
(7.17762 -0.41738 0)
(7.66151 -0.329875 0)
(8.01562 -0.238765 2.76293e-19)
(8.27733 -0.132909 -2.41375e-19)
(8.52979 -0.0113422 0)
(8.73526 0.118429 0)
(8.84022 0.251924 0)
(8.76237 0.377537 4.36079e-19)
(8.51995 0.490736 0)
(7.88047 0.547193 -2.83008e-19)
(0.16875 0.743601 -6.73917e-22)
(0.3293 1.14551 3.37941e-19)
(0.454342 1.08858 0)
(0.610387 0.834271 -3.06189e-19)
(0.839466 0.474099 0)
(1.20261 -0.150379 0)
(1.78744 -1.12117 3.77942e-21)
(2.60104 -2.22069 4.39214e-20)
(3.48245 -3.16917 3.51458e-20)
(4.28187 -3.79903 2.50519e-20)
(4.95796 -4.08467 0)
(5.52213 -4.08971 0)
(5.99399 -3.89714 -3.11528e-20)
(6.39366 -3.57691 -6.72571e-20)
(6.73736 -3.18225 7.35789e-20)
(7.03415 -2.74919 0)
(7.28786 -2.29967 8.85338e-20)
(7.4999 -1.84605 -3.61696e-20)
(7.67061 -1.39496 0)
(7.80021 -0.948427 1.11671e-19)
(7.88909 -0.507882 4.80526e-20)
(7.93839 -0.0742976 -1.24071e-19)
(7.95154 0.361553 -5.03801e-20)
(7.93717 0.811282 0)
(7.90079 1.28232 1.15117e-19)
(7.8397 1.77226 1.10348e-19)
(7.73798 2.26266 0)
(7.56435 2.71448 1.00544e-19)
(7.27791 3.07134 0)
(6.84166 3.27424 9.53123e-20)
(6.23988 3.28457 3.99936e-20)
(5.49334 3.10063 0)
(4.64679 2.75722 0)
(3.79 2.344 0)
(3.05013 1.96554 0)
(2.48453 1.66937 0)
(2.07242 1.36263 0)
(1.86628 0.910118 2.98695e-19)
(1.66803 0.503263 -5.39369e-19)
(1.64151 0.139091 0)
(2.15465 -0.891877 0)
(2.72978 -2.0018 0)
(3.03645 -2.3907 -8.87713e-22)
(2.99217 -1.95332 1.58082e-19)
(2.51902 -1.34042 4.24724e-19)
(1.99139 -0.819219 -5.98142e-19)
(0.45518 0.767798 -2.28683e-19)
(-1.84794 2.2959 1.04362e-19)
(-3.75816 3.33901 8.77936e-21)
(-5.47432 4.0021 6.216e-20)
(-6.68357 4.21283 0)
(-7.57754 4.1772 6.31467e-20)
(-8.18482 3.96928 2.03484e-20)
(-8.58072 3.61286 0)
(-8.84795 3.17812 0)
(-9.05052 2.72235 -9.02688e-20)
(-9.23075 2.28475 0)
(-9.41077 1.88642 0)
(-9.59655 1.53451 1.42318e-19)
(-9.78298 1.22716 2.72051e-19)
(-9.95895 0.957882 -1.3337e-19)
(-10.1116 0.718691 0)
(-10.2289 0.502001 1.53996e-19)
(-10.3021 0.301975 0)
(-10.3252 0.114748 1.86639e-19)
(-10.2972 -0.062048 1.6923e-19)
(-10.2178 -0.228497 -3.53615e-19)
(-10.0895 -0.384014 -1.82277e-19)
(-9.91437 -0.528168 0)
(-9.69427 -0.661031 3.35741e-19)
(-9.43145 -0.782674 0)
(-9.12847 -0.892999 4.64644e-19)
(-8.78811 -0.991708 2.99937e-19)
(-8.4135 -1.07829 2.83873e-19)
(-8.00817 -1.15205 -2.65633e-19)
(-7.57621 -1.21217 3.62287e-19)
(-7.12229 -1.25783 0)
(-6.65163 -1.28847 0)
(-6.1698 -1.30389 -1.70691e-19)
(-5.68254 -1.30444 -2.08455e-19)
(-5.19539 -1.29102 0)
(-4.71355 -1.26503 3.54873e-20)
(-4.24158 -1.22821 0)
(-3.78333 -1.1825 -4.25992e-21)
(-3.34184 -1.12982 5.34335e-21)
(-2.91928 -1.07195 -5.13402e-21)
(-2.51706 -1.01043 -1.30671e-19)
(-2.1359 -0.946671 0)
(-1.77613 -0.88199 2.55534e-19)
(-1.43774 -0.817787 4.91457e-21)
(-1.12069 -0.755403 0)
(-0.825126 -0.696812 0)
(-0.547918 -0.644301 0)
(-0.29075 -0.600804 -1.13513e-18)
(-0.0319253 -0.571297 0)
(0.231156 -0.550697 0)
(0.462933 -0.522985 0)
(0.668753 -0.489744 0)
(0.855703 -0.454551 0)
(1.02894 -0.418696 -6.14586e-19)
(1.19118 -0.383912 0)
(1.34307 -0.351403 -5.36897e-19)
(1.48476 -0.321414 -5.05507e-19)
(1.61655 -0.293856 4.78688e-19)
(1.73893 -0.268545 0)
(1.85242 -0.245278 4.35485e-19)
(1.95756 -0.223854 0)
(2.05488 -0.204091 4.02538e-19)
(2.14489 -0.18582 -3.8897e-19)
(2.22806 -0.168885 -1.12871e-18)
(2.3048 -0.153144 0)
(2.37551 -0.138464 -1.06924e-18)
(2.44054 -0.124722 -3.47098e-19)
(2.50019 -0.111783 0)
(2.55472 -0.0995069 -6.68792e-19)
(2.60439 -0.0878021 -6.57817e-19)
(2.64938 -0.0765586 9.73193e-19)
(2.68983 -0.0654534 0)
(2.72595 -0.0542059 3.17581e-19)
(2.75794 -0.0429962 3.15052e-19)
(2.78592 -0.0318484 9.38645e-19)
(2.81018 -0.0203188 0)
(2.83183 -0.00798681 0)
(2.85178 0.00548477 0)
(2.87097 0.020384 2.99142e-19)
(2.89029 0.0369302 0)
(2.91038 0.0552187 0)
(2.93121 0.0751451 -2.86554e-19)
(2.95179 0.0963689 -2.82277e-19)
(2.96995 0.118342 0)
(2.98243 0.14024 0)
(2.98543 0.160766 -5.48153e-19)
(2.97507 0.17833 0)
(2.94753 0.192183 5.52317e-19)
(2.89901 0.203496 5.59096e-19)
(2.8286 0.212862 0)
(2.74176 0.214161 0)
(2.64811 0.19015 -6.23957e-19)
(2.54678 0.132258 1.30486e-21)
(2.40598 0.0977714 9.07878e-22)
(2.13145 0.189255 0)
(1.86209 0.2692 -1.58647e-18)
(2.10309 -0.184242 0)
(2.54892 -0.936494 0)
(2.46518 -0.637499 0)
(0.198349 2.04395 3.64977e-19)
(-2.94966 3.33941 0)
(-4.40261 3.15318 -1.75719e-19)
(-4.85752 2.30107 -1.69861e-20)
(-5.09211 1.43852 0)
(-5.31258 0.782659 3.73e-19)
(-5.45541 0.30747 0)
(-5.46848 -0.0357207 0)
(-5.32473 -0.289755 1.72601e-18)
(-5.02872 -0.514185 -1.08423e-18)
(-4.57397 -0.717291 0)
(-3.97449 -0.885974 -7.45678e-19)
(-3.25775 -1.01353 2.37263e-19)
(-2.45497 -1.10559 0)
(-1.58536 -1.1814 0)
(-0.644601 -1.2484 0)
(0.409322 -1.32387 -1.56427e-18)
(1.48533 -1.38996 0)
(2.5036 -1.41981 -5.0769e-19)
(3.46509 -1.39698 0)
(4.37702 -1.32275 0)
(5.24442 -1.21309 0)
(6.05264 -1.08757 0)
(6.7829 -0.953169 0)
(7.42339 -0.814277 0)
(7.96733 -0.672764 -6.153e-19)
(8.41206 -0.528535 0)
(8.75698 -0.384685 -2.49175e-19)
(9.00131 -0.246882 6.49181e-19)
(9.15333 -0.111514 0)
(9.23961 0.0348129 0)
(9.29465 0.200468 -2.76566e-19)
(9.31454 0.378495 -2.6199e-19)
(9.31057 0.573537 2.26303e-19)
(9.13368 0.714308 2.34483e-19)
(0.0214323 -0.0295187 -2.111e-18)
(0.223789 0.587898 -7.16492e-19)
(0.362671 0.679169 -3.8709e-19)
(0.544295 0.315426 -1.31041e-19)
(1.14122 -0.683866 0)
(2.10726 -2.03333 9.10901e-20)
(3.15658 -3.31365 -3.63975e-20)
(4.09031 -4.27126 0)
(4.81839 -4.8346 -2.52802e-20)
(5.34229 -5.04335 0)
(5.71468 -4.98593 6.78631e-20)
(5.99381 -4.75241 0)
(6.22031 -4.40915 2.92765e-20)
(6.41612 -3.99772 6.51881e-20)
(6.59086 -3.54376 -7.3097e-20)
(6.74714 -3.06406 0)
(6.88418 -2.57031 -9.13962e-20)
(7.00023 -2.07083 0)
(7.09376 -1.5715 0)
(7.1639 -1.07575 -1.20254e-19)
(7.2107 -0.585589 0)
(7.23587 -0.102057 -2.52585e-20)
(7.23934 0.378504 0)
(7.22458 0.859922 0)
(7.1963 1.34725 2.18285e-20)
(7.16144 1.84776 -1.18303e-19)
(7.1251 2.36752 -1.31568e-19)
(7.0822 2.90096 -1.03352e-19)
(7.00884 3.41675 0)
(6.86192 3.852 -1.98137e-19)
(6.5937 4.12892 0)
(6.17828 4.18727 -1.00457e-19)
(5.62307 4.0035 0)
(4.97565 3.6059 0)
(4.32815 3.07343 1.16066e-19)
(3.76544 2.49149 0)
(3.36274 1.85563 -1.49486e-19)
(3.13271 1.17832 -1.42273e-20)
(2.9553 0.587121 4.17994e-19)
(3.03204 -0.315456 -3.22743e-19)
(3.47206 -1.68484 0)
(3.68479 -2.4542 0)
(3.13559 -2.21732 -1.70334e-19)
(2.34994 -1.46266 0)
(0.375804 0.94146 -2.26573e-19)
(-2.01525 2.92566 1.03615e-19)
(-4.03265 4.26985 6.56293e-20)
(-5.66178 5.03205 0)
(-6.76405 5.31041 -4.82534e-20)
(-7.51683 5.30454 -4.79305e-20)
(-7.97519 5.07074 1.38145e-19)
(-8.25513 4.71767 -5.8221e-20)
(-8.43538 4.29908 -6.40194e-20)
(-8.58326 3.84719 0)
(-8.7429 3.39664 0)
(-8.93414 2.96754 8.95061e-20)
(-9.15494 2.56687 0)
(-9.39101 2.19349 0)
(-9.62444 1.8434 -2.44536e-19)
(-9.83912 1.5129 -2.66438e-19)
(-10.0227 1.19952 0)
(-10.1669 0.901903 0)
(-10.2662 0.619234 0)
(-10.3177 0.350807 0)
(-10.3196 0.0963164 -3.54349e-19)
(-10.2719 -0.14449 3.76209e-19)
(-10.1742 -0.371044 3.50217e-19)
(-10.0281 -0.583334 7.10648e-19)
(-9.83529 -0.781111 0)
(-9.59778 -0.964165 1.81822e-20)
(-9.31787 -1.13228 0)
(-8.99801 -1.28515 -3.06667e-19)
(-8.64082 -1.42227 1.65411e-20)
(-8.24913 -1.54282 -2.76088e-19)
(-7.82622 -1.64567 2.57854e-19)
(-7.37604 -1.72942 1.51842e-20)
(-6.90341 -1.79263 0)
(-6.41399 -1.83424 2.04721e-19)
(-5.91402 -1.85384 1.65071e-19)
(-5.40998 -1.85196 2.85552e-19)
(-4.90808 -1.83005 0)
(-4.41397 -1.79033 -8.4705e-20)
(-3.93243 -1.7355 0)
(-3.46722 -1.66847 1.72419e-20)
(-3.0211 -1.59205 3.5134e-20)
(-2.59586 -1.50882 -7.89266e-20)
(-2.19252 -1.42108 1.28244e-19)
(-1.81156 -1.331 3.56637e-19)
(-1.45306 -1.24078 -2.53443e-19)